REMARK SMILES O=CN/C=C/c1cccc(O)c1O
REMARK SMILES IDX 6 1 7 2 8 3 9 4 10 5 12 6 5 7 4 8 3 9 1 10 2 11 13 13 11 15
REMARK H PARENT 3 12 13 14 11 16
ROOT
ATOM      1  C   UNL     1      -0.285  -0.020   0.157  1.00  0.00     0.022 A 
ATOM      2  C   UNL     1      -0.728  -0.855   1.195  1.00  0.00     0.012 A 
ATOM      3  C   UNL     1      -2.091  -1.137   1.361  1.00  0.00     0.005 A 
ATOM      4  C   UNL     1      -3.036  -0.580   0.499  1.00  0.00     0.050 A 
ATOM      5  C   UNL     1      -2.606   0.261  -0.519  1.00  0.00     0.158 A 
ATOM      6  C   UNL     1      -1.247   0.543  -0.688  1.00  0.00     0.164 A 
ENDROOT
BRANCH   1   7
ATOM      7  C   UNL     1       1.143   0.307  -0.001  1.00  0.00     0.030 C 
ATOM      8  C   UNL     1       2.118  -0.609   0.063  1.00  0.00     0.086 C 
BRANCH   8   9
ATOM      9  N   UNL     1       3.467  -0.382  -0.080  1.00  0.00    -0.335 N 
ATOM     10  O   UNL     1       3.652   1.950  -0.287  1.00  0.00    -0.279 OA
ATOM     11  C   UNL     1       4.118   0.821  -0.251  1.00  0.00     0.341 C 
ATOM     12  H   UNL     1       4.062  -1.202  -0.046  1.00  0.00     0.169 HD
ENDBRANCH   8   9
ENDBRANCH   1   7
BRANCH   6  13
ATOM     13  O   UNL     1      -0.881   1.381  -1.709  1.00  0.00    -0.504 OA
ATOM     14  H   UNL     1      -1.722   1.636  -2.136  1.00  0.00     0.293 HD
ENDBRANCH   6  13
BRANCH   5  15
ATOM     15  O   UNL     1      -3.487   0.843  -1.390  1.00  0.00    -0.504 OA
ATOM     16  H   UNL     1      -4.386   0.568  -1.141  1.00  0.00     0.293 HD
ENDBRANCH   5  15
TORSDOF 4
