REMARK SMILES COC[C@@H](Cn1ccnc1[N+](=O)[O-])OC(=O)c1ccc(NC=C2C(=O)C=CC2=O)cc1
REMARK SMILES IDX 4 1 3 2 2 3 1 4 5 5 6 6 7 7 10 8 8 9 9 10 11 11 12 12 13 13
REMARK SMILES IDX 14 14 15 15 16 16 17 17 18 18 31 19 19 20 30 21 20 22 21 23
REMARK SMILES IDX 22 25 23 26 24 27 28 28 25 29 26 30 27 31 29 32
REMARK H PARENT 21 24
ROOT
ATOM      1  C   UNL     1      -3.610  -0.885  -0.368  1.00  0.00     0.237 C 
ENDROOT
BRANCH   1   2
ATOM      2  C   UNL     1      -4.173  -1.179   1.033  1.00  0.00     0.208 C 
BRANCH   2   3
ATOM      3  O   UNL     1      -3.609  -2.364   1.606  1.00  0.00    -0.381 OA
ATOM      4  C   UNL     1      -4.188  -3.568   1.121  1.00  0.00     0.195 C 
ENDBRANCH   2   3
ENDBRANCH   1   2
BRANCH   1   5
ATOM      5  C   UNL     1      -4.308   0.292  -1.070  1.00  0.00     0.253 C 
BRANCH   5   6
ATOM      6  N   UNL     1      -4.444   1.494  -0.266  1.00  0.00    -0.226 N 
ATOM      7  C   UNL     1      -5.608   1.856   0.378  1.00  0.00     0.204 A 
ATOM      8  C   UNL     1      -3.518   2.455   0.044  1.00  0.00     0.434 A 
ATOM      9  C   UNL     1      -5.300   2.998   1.082  1.00  0.00     0.245 A 
ATOM     10  N   UNL     1      -3.996   3.359   0.878  1.00  0.00    -0.074 NA
BRANCH   8  11
ATOM     11  N   UNL     1      -2.179   2.497  -0.465  1.00  0.00    -0.047 N 
ATOM     12  O   UNL     1      -2.018   2.178  -1.650  1.00  0.00    -0.390 OA
ATOM     13  O   UNL     1      -1.285   2.840   0.320  1.00  0.00    -0.390 OA
ENDBRANCH   8  11
ENDBRANCH   5   6
ENDBRANCH   1   5
BRANCH   1  14
ATOM     14  O   UNL     1      -2.195  -0.622  -0.240  1.00  0.00    -0.453 OA
BRANCH  14  15
ATOM     15  C   UNL     1      -1.433  -1.002  -1.299  1.00  0.00     0.338 C 
ATOM     16  O   UNL     1      -1.865  -1.468  -2.342  1.00  0.00    -0.246 OA
BRANCH  15  17
ATOM     17  C   UNL     1       0.011  -0.768  -1.031  1.00  0.00     0.060 A 
ATOM     18  C   UNL     1       0.929  -1.064  -2.042  1.00  0.00     0.018 A 
ATOM     19  C   UNL     1       0.481  -0.269   0.188  1.00  0.00     0.018 A 
ATOM     20  C   UNL     1       2.297  -0.860  -1.834  1.00  0.00     0.027 A 
ATOM     21  C   UNL     1       1.854  -0.065   0.386  1.00  0.00     0.027 A 
ATOM     22  C   UNL     1       2.784  -0.353  -0.619  1.00  0.00     0.038 A 
BRANCH  22  23
ATOM     23  N   UNL     1       4.170  -0.178  -0.476  1.00  0.00    -0.361 N 
ATOM     24  H   UNL     1       4.728  -0.393  -1.306  1.00  0.00     0.166 HD
BRANCH  23  25
ATOM     25  C   UNL     1       4.886   0.291   0.598  1.00  0.00     0.099 C 
ATOM     26  C   UNL     1       6.208   0.473   0.662  1.00  0.00     0.085 C 
ATOM     27  C   UNL     1       7.183   0.213  -0.404  1.00  0.00     0.191 C 
ATOM     28  C   UNL     1       6.951   0.976   1.824  1.00  0.00     0.191 C 
ATOM     29  O   UNL     1       6.972  -0.215  -1.521  1.00  0.00    -0.289 OA
ATOM     30  C   UNL     1       8.501   0.578   0.151  1.00  0.00     0.057 C 
ATOM     31  C   UNL     1       8.369   1.010   1.414  1.00  0.00     0.057 C 
ATOM     32  O   UNL     1       6.519   1.301   2.909  1.00  0.00    -0.289 OA
ENDBRANCH  23  25
ENDBRANCH  22  23
ENDBRANCH  15  17
ENDBRANCH  14  15
ENDBRANCH   1  14
TORSDOF 10
