REMARK SMILES Cc1[nH]c(/C=C2\C(=O)Nc3ccc(F)cc32)c(C)c1C(=O)NCC1CCN(C)CC1
REMARK SMILES IDX 20 1 21 2 22 3 19 5 2 6 3 7 4 8 17 9 1 10 18 12 5 13 6 14
REMARK SMILES IDX 7 15 16 16 8 17 9 18 15 19 10 20 13 21 11 22 12 23 14 25
REMARK SMILES IDX 23 26 24 27 25 28 30 29 26 30 29 31 27 32 28 33
REMARK H PARENT 22 4 3 11 9 24
ROOT
ATOM      1  C   UNL     1       1.153  -1.778   0.142  1.00  0.00     0.253 C 
ATOM      2  O   UNL     1       1.353  -2.637  -0.710  1.00  0.00    -0.269 OA
ATOM      3  N   UNL     1       2.170  -1.180   0.855  1.00  0.00    -0.352 N 
ATOM      4  H   UNL     1       1.939  -0.346   1.376  1.00  0.00     0.163 HD
ENDROOT
BRANCH   1   5
ATOM      5  C   UNL     1      -0.186  -1.254   0.436  1.00  0.00     0.063 A 
ATOM      6  C   UNL     1      -0.670  -0.802   1.658  1.00  0.00     0.025 A 
ATOM      7  N   UNL     1      -1.970  -0.400   1.469  1.00  0.00    -0.358 N 
ATOM      8  C   UNL     1      -2.374  -0.618   0.178  1.00  0.00     0.043 A 
ATOM      9  C   UNL     1      -1.279  -1.148  -0.498  1.00  0.00    -0.013 A 
ATOM     10  C   UNL     1      -0.063  -0.735   3.014  1.00  0.00     0.065 C 
ATOM     11  H   UNL     1      -2.555  -0.019   2.207  1.00  0.00     0.166 HD
ATOM     12  C   UNL     1      -1.213  -1.551  -1.935  1.00  0.00     0.047 C 
BRANCH   8  13
ATOM     13  C   UNL     1      -3.697  -0.331  -0.266  1.00  0.00     0.041 C 
ATOM     14  C   UNL     1      -4.720   0.241   0.392  1.00  0.00     0.051 C 
ATOM     15  C   UNL     1      -4.824   0.766   1.806  1.00  0.00     0.256 C 
ATOM     16  C   UNL     1      -6.041   0.475  -0.227  1.00  0.00     0.014 A 
ATOM     17  O   UNL     1      -3.974   0.768   2.676  1.00  0.00    -0.269 OA
ATOM     18  N   UNL     1      -6.114   1.254   1.926  1.00  0.00    -0.321 N 
ATOM     19  C   UNL     1      -6.565   0.215  -1.481  1.00  0.00     0.050 A 
ATOM     20  C   UNL     1      -6.833   1.090   0.750  1.00  0.00     0.049 A 
ATOM     21  C   UNL     1      -7.888   0.585  -1.720  1.00  0.00     0.123 A 
ATOM     22  C   UNL     1      -8.145   1.461   0.528  1.00  0.00     0.030 A 
ATOM     23  C   UNL     1      -8.676   1.200  -0.736  1.00  0.00     0.041 A 
ATOM     24  H   UNL     1      -6.461   1.668   2.778  1.00  0.00     0.170 HD
ATOM     25  F   UNL     1      -8.424   0.346  -2.925  1.00  0.00    -0.207 F 
ENDBRANCH   8  13
ENDBRANCH   1   5
BRANCH   3  26
ATOM     26  C   UNL     1       3.562  -1.473   0.593  1.00  0.00     0.119 C 
BRANCH  26  27
ATOM     27  C   UNL     1       4.108  -0.709  -0.625  1.00  0.00     0.011 C 
ATOM     28  C   UNL     1       3.997   0.814  -0.420  1.00  0.00     0.021 C 
ATOM     29  C   UNL     1       5.559  -1.127  -0.933  1.00  0.00     0.021 C 
ATOM     30  C   UNL     1       5.029   1.565  -1.258  1.00  0.00     0.084 C 
ATOM     31  C   UNL     1       6.564  -0.135  -0.350  1.00  0.00     0.084 C 
ATOM     32  N   UNL     1       6.415   1.204  -0.935  1.00  0.00    -0.306 NA
ATOM     33  C   UNL     1       7.068   2.210  -0.102  1.00  0.00     0.105 C 
ENDBRANCH  26  27
ENDBRANCH   3  26
TORSDOF 4
