REMARK SMILES CC(C)(C)c1ccc(OC[C@H](Cn2ccnc2[N+](=O)[O-])OC(=O)c2ccc(NC=C3C(=O)C=CC3=O)cc2)cc1
REMARK SMILES IDX 11 1 10 2 9 3 8 4 5 5 6 6 40 7 7 8 39 9 2 10 1 11 3 12 4 13
REMARK SMILES IDX 12 14 13 15 14 16 17 17 15 18 16 19 18 20 19 21 20 22 21 23
REMARK SMILES IDX 22 24 23 25 24 26 25 27 38 28 26 29 37 30 27 31 28 32 29 34
REMARK SMILES IDX 30 35 31 36 35 37 32 38 33 39 34 40 36 41
REMARK H PARENT 28 33
ROOT
ATOM      1  C   UNL     1      -0.830   1.169   0.260  1.00  0.00     0.248 C 
ENDROOT
BRANCH   1   2
ATOM      2  C   UNL     1      -1.487   1.198  -1.131  1.00  0.00     0.278 C 
BRANCH   2   3
ATOM      3  O   UNL     1      -2.838   1.653  -1.079  1.00  0.00    -0.490 OA
BRANCH   3   4
ATOM      4  C   UNL     1      -3.816   0.761  -0.744  1.00  0.00     0.119 A 
ATOM      5  C   UNL     1      -6.047  -0.857  -0.039  1.00  0.00    -0.042 A 
ATOM      6  C   UNL     1      -4.754  -1.394  -0.144  1.00  0.00     0.008 A 
ATOM      7  C   UNL     1      -6.191   0.517  -0.302  1.00  0.00     0.008 A 
ATOM      8  C   UNL     1      -3.653  -0.597  -0.493  1.00  0.00     0.047 A 
ATOM      9  C   UNL     1      -5.093   1.311  -0.649  1.00  0.00     0.047 A 
BRANCH   5  10
ATOM     10  C   UNL     1      -7.273  -1.705   0.340  1.00  0.00    -0.013 C 
ATOM     11  C   UNL     1      -6.949  -3.195   0.594  1.00  0.00     0.016 C 
ATOM     12  C   UNL     1      -7.907  -1.149   1.634  1.00  0.00     0.016 C 
ATOM     13  C   UNL     1      -8.315  -1.653  -0.799  1.00  0.00     0.016 C 
ENDBRANCH   5  10
ENDBRANCH   3   4
ENDBRANCH   2   3
ENDBRANCH   1   2
BRANCH   1  14
ATOM     14  C   UNL     1      -0.984   2.487   1.039  1.00  0.00     0.254 C 
BRANCH  14  15
ATOM     15  N   UNL     1      -0.391   3.648   0.402  1.00  0.00    -0.225 N 
ATOM     16  C   UNL     1      -1.095   4.530  -0.388  1.00  0.00     0.204 A 
ATOM     17  C   UNL     1       0.902   4.101   0.427  1.00  0.00     0.434 A 
ATOM     18  C   UNL     1      -0.171   5.444  -0.838  1.00  0.00     0.245 A 
ATOM     19  N   UNL     1       1.071   5.166  -0.335  1.00  0.00    -0.074 NA
BRANCH  17  20
ATOM     20  N   UNL     1       1.976   3.504   1.172  1.00  0.00    -0.047 N 
ATOM     21  O   UNL     1       1.694   2.970   2.253  1.00  0.00    -0.390 OA
ATOM     22  O   UNL     1       3.108   3.560   0.673  1.00  0.00    -0.390 OA
ENDBRANCH  17  20
ENDBRANCH  14  15
ENDBRANCH   1  14
BRANCH   1  23
ATOM     23  O   UNL     1       0.571   0.838   0.134  1.00  0.00    -0.452 OA
BRANCH  23  24
ATOM     24  C   UNL     1       0.837  -0.490   0.004  1.00  0.00     0.338 C 
ATOM     25  O   UNL     1       0.001  -1.379  -0.005  1.00  0.00    -0.246 OA
BRANCH  24  26
ATOM     26  C   UNL     1       2.296  -0.735  -0.104  1.00  0.00     0.060 A 
ATOM     27  C   UNL     1       3.194   0.258  -0.502  1.00  0.00     0.018 A 
ATOM     28  C   UNL     1       2.777  -2.015   0.180  1.00  0.00     0.018 A 
ATOM     29  C   UNL     1       4.565  -0.023  -0.590  1.00  0.00     0.027 A 
ATOM     30  C   UNL     1       4.146  -2.288   0.087  1.00  0.00     0.027 A 
ATOM     31  C   UNL     1       5.065  -1.296  -0.291  1.00  0.00     0.038 A 
BRANCH  31  32
ATOM     32  N   UNL     1       6.424  -1.640  -0.373  1.00  0.00    -0.361 N 
ATOM     33  H   UNL     1       6.658  -2.584  -0.056  1.00  0.00     0.166 HD
BRANCH  32  34
ATOM     34  C   UNL     1       7.499  -0.872  -0.746  1.00  0.00     0.099 C 
ATOM     35  C   UNL     1       8.784  -1.240  -0.747  1.00  0.00     0.085 C 
ATOM     36  C   UNL     1       9.919  -0.404  -1.156  1.00  0.00     0.191 C 
ATOM     37  C   UNL     1       9.323  -2.545  -0.343  1.00  0.00     0.191 C 
ATOM     38  O   UNL     1       9.903   0.740  -1.560  1.00  0.00    -0.289 OA
ATOM     39  C   UNL     1      11.122  -1.241  -0.981  1.00  0.00     0.057 C 
ATOM     40  C   UNL     1      10.784  -2.454  -0.520  1.00  0.00     0.057 C 
ATOM     41  O   UNL     1       8.709  -3.513   0.059  1.00  0.00    -0.289 OA
ENDBRANCH  32  34
ENDBRANCH  31  32
ENDBRANCH  24  26
ENDBRANCH  23  24
ENDBRANCH   1  23
TORSDOF 12
