REMARK SMILES COc1cc2c(c(O)c1-c1c(OC)cc(O)c3c1C(=O)C1=C(C3=O)[C@H](O)[C@@H](O)[C@@](C)(O)[C@@H]1O)C(=O)c1cc(O)c(C)cc1C2=O
REMARK SMILES IDX 3 1 4 2 5 3 6 4 7 5 9 6 34 7 35 8 36 9 37 10 38 11 40 12
REMARK SMILES IDX 41 13 42 14 43 15 44 16 45 17 2 18 1 19 10 20 11 21 18 22
REMARK SMILES IDX 14 23 17 24 19 25 15 26 23 27 20 28 21 29 22 30 24 31 32 32
REMARK SMILES IDX 25 33 29 34 27 35 30 36 12 37 13 38 16 39 33 41 26 43 31 45
REMARK SMILES IDX 28 47 8 49 39 51
REMARK H PARENT 16 40 33 42 26 44 31 46 28 48 8 50 39 52
ROOT
ATOM      1  C   UNL     1       1.105  -1.602  -1.148  1.00  0.00     0.131 A 
ATOM      2  C   UNL     1       2.313  -1.070  -1.609  1.00  0.00     0.060 A 
ATOM      3  C   UNL     1       3.094  -0.257  -0.776  1.00  0.00     0.041 A 
ATOM      4  C   UNL     1       2.667   0.054   0.513  1.00  0.00     0.076 A 
ATOM      5  C   UNL     1       1.446  -0.461   0.975  1.00  0.00     0.139 A 
ATOM      6  C   UNL     1       0.661  -1.303   0.161  1.00  0.00     0.071 A 
ATOM      7  C   UNL     1       3.512   0.896   1.383  1.00  0.00     0.198 C 
ATOM      8  O   UNL     1       3.113   1.202   2.503  1.00  0.00    -0.288 OA
ATOM      9  C   UNL     1       4.833   1.343   0.906  1.00  0.00     0.038 A 
ATOM     10  C   UNL     1       5.672   2.067   1.757  1.00  0.00     0.059 A 
ATOM     11  C   UNL     1       6.932   2.470   1.315  1.00  0.00     0.119 A 
ATOM     12  C   UNL     1       7.379   2.167   0.023  1.00  0.00    -0.008 A 
ATOM     13  C   UNL     1       8.735   2.575  -0.475  1.00  0.00     0.048 C 
ATOM     14  C   UNL     1       6.523   1.445  -0.823  1.00  0.00     0.020 A 
ATOM     15  C   UNL     1       5.257   1.031  -0.381  1.00  0.00     0.034 A 
ATOM     16  C   UNL     1       4.388   0.249  -1.281  1.00  0.00     0.194 C 
ATOM     17  O   UNL     1       4.744   0.011  -2.428  1.00  0.00    -0.289 OA
ENDROOT
BRANCH   1  18
ATOM     18  O   UNL     1       0.285  -2.419  -1.889  1.00  0.00    -0.496 OA
ATOM     19  C   UNL     1       0.720  -2.785  -3.192  1.00  0.00     0.278 C 
ENDBRANCH   1  18
BRANCH   6  20
ATOM     20  C   UNL     1      -0.585  -1.906   0.686  1.00  0.00     0.043 A 
ATOM     21  C   UNL     1      -0.484  -3.132   1.398  1.00  0.00     0.131 A 
ATOM     22  C   UNL     1      -1.864  -1.320   0.489  1.00  0.00     0.049 A 
ATOM     23  C   UNL     1      -1.630  -3.757   1.885  1.00  0.00     0.094 A 
ATOM     24  C   UNL     1      -3.005  -1.976   0.968  1.00  0.00     0.076 A 
ATOM     25  C   UNL     1      -2.034  -0.018  -0.218  1.00  0.00     0.193 C 
ATOM     26  C   UNL     1      -2.877  -3.186   1.665  1.00  0.00     0.131 A 
ATOM     27  C   UNL     1      -4.350  -1.424   0.733  1.00  0.00     0.196 C 
ATOM     28  O   UNL     1      -1.104   0.600  -0.725  1.00  0.00    -0.289 OA
ATOM     29  C   UNL     1      -3.402   0.552  -0.344  1.00  0.00     0.041 C 
ATOM     30  C   UNL     1      -4.490  -0.123   0.054  1.00  0.00     0.041 C 
ATOM     31  O   UNL     1      -5.346  -2.043   1.102  1.00  0.00    -0.289 OA
ATOM     32  C   UNL     1      -3.471   1.936  -0.948  1.00  0.00     0.183 C 
ATOM     33  C   UNL     1      -5.888   0.406  -0.119  1.00  0.00     0.180 C 
ATOM     34  C   UNL     1      -4.849   2.631  -0.758  1.00  0.00     0.121 C 
ATOM     35  C   UNL     1      -5.978   1.631  -1.053  1.00  0.00     0.182 C 
ATOM     36  C   UNL     1      -4.969   3.888  -1.629  1.00  0.00     0.048 C 
BRANCH  21  37
ATOM     37  O   UNL     1       0.785  -3.641   1.551  1.00  0.00    -0.496 OA
ATOM     38  C   UNL     1       0.940  -4.803   2.356  1.00  0.00     0.278 C 
ENDBRANCH  21  37
BRANCH  26  39
ATOM     39  O   UNL     1      -3.941  -3.887   2.173  1.00  0.00    -0.507 OA
ATOM     40  H   UNL     1      -4.771  -3.426   1.925  1.00  0.00     0.293 HD
ENDBRANCH  26  39
BRANCH  32  41
ATOM     41  O   UNL     1      -3.167   1.805  -2.336  1.00  0.00    -0.385 OA
ATOM     42  H   UNL     1      -2.211   1.595  -2.380  1.00  0.00     0.211 HD
ENDBRANCH  32  41
BRANCH  33  43
ATOM     43  O   UNL     1      -6.756  -0.592  -0.673  1.00  0.00    -0.385 OA
ATOM     44  H   UNL     1      -6.723  -1.355  -0.057  1.00  0.00     0.211 HD
ENDBRANCH  33  43
BRANCH  34  45
ATOM     45  O   UNL     1      -4.979   3.063   0.613  1.00  0.00    -0.384 OA
ATOM     46  H   UNL     1      -5.886   3.427   0.681  1.00  0.00     0.211 HD
ENDBRANCH  34  45
BRANCH  35  47
ATOM     47  O   UNL     1      -7.257   2.264  -0.842  1.00  0.00    -0.387 OA
ATOM     48  H   UNL     1      -7.916   1.563  -1.018  1.00  0.00     0.211 HD
ENDBRANCH  35  47
ENDBRANCH   6  20
BRANCH   5  49
ATOM     49  O   UNL     1       0.971  -0.175   2.236  1.00  0.00    -0.506 OA
ATOM     50  H   UNL     1       1.617   0.418   2.685  1.00  0.00     0.293 HD
ENDBRANCH   5  49
BRANCH  11  51
ATOM     51  O   UNL     1       7.688   3.159   2.217  1.00  0.00    -0.508 OA
ATOM     52  H   UNL     1       8.523   3.443   1.808  1.00  0.00     0.293 HD
ENDBRANCH  11  51
TORSDOF 10
