REMARK SMILES O=CN/C=C/c1ccc(O)c(O)c1O
REMARK SMILES IDX 6 1 7 2 8 3 9 4 11 5 13 6 5 7 4 8 3 9 1 10 2 11 14 13 12 15
REMARK SMILES IDX 10 17
REMARK H PARENT 3 12 14 14 12 16 10 18
ROOT
ATOM      1  C   UNL     1       0.333   0.026  -0.620  1.00  0.00     0.022 A 
ATOM      2  C   UNL     1       0.858   0.991  -1.500  1.00  0.00     0.016 A 
ATOM      3  C   UNL     1       2.091   1.603  -1.246  1.00  0.00     0.051 A 
ATOM      4  C   UNL     1       2.807   1.247  -0.113  1.00  0.00     0.161 A 
ATOM      5  C   UNL     1       2.307   0.291   0.760  1.00  0.00     0.200 A 
ATOM      6  C   UNL     1       1.081  -0.324   0.514  1.00  0.00     0.168 A 
ENDROOT
BRANCH   1   7
ATOM      7  C   UNL     1      -0.963  -0.575  -0.959  1.00  0.00     0.030 C 
ATOM      8  C   UNL     1      -2.040  -0.438  -0.176  1.00  0.00     0.086 C 
BRANCH   8   9
ATOM      9  N   UNL     1      -3.251  -0.990  -0.503  1.00  0.00    -0.335 N 
ATOM     10  O   UNL     1      -4.438  -0.327   1.382  1.00  0.00    -0.279 OA
ATOM     11  C   UNL     1      -4.369  -0.883   0.295  1.00  0.00     0.341 C 
ATOM     12  H   UNL     1      -3.343  -1.494  -1.378  1.00  0.00     0.169 HD
ENDBRANCH   8   9
ENDBRANCH   1   7
BRANCH   6  13
ATOM     13  O   UNL     1       0.690  -1.273   1.424  1.00  0.00    -0.504 OA
ATOM     14  H   UNL     1      -0.161  -1.645   1.132  1.00  0.00     0.293 HD
ENDBRANCH   6  13
BRANCH   5  15
ATOM     15  O   UNL     1       3.042  -0.044   1.867  1.00  0.00    -0.502 OA
ATOM     16  H   UNL     1       2.493  -0.717   2.320  1.00  0.00     0.293 HD
ENDBRANCH   5  15
BRANCH   4  17
ATOM     17  O   UNL     1       4.009   1.841   0.136  1.00  0.00    -0.504 OA
ATOM     18  H   UNL     1       4.312   1.437   0.975  1.00  0.00     0.293 HD
ENDBRANCH   4  17
TORSDOF 5
