REMARK SMILES COc1cc(O)c2c(c1)C(=O)c1cc(C)c(O)c(O)c1C2=O
REMARK SMILES IDX 3 1 4 2 5 3 7 4 8 5 9 6 10 7 11 8 12 9 13 10 14 11 15 12
REMARK SMILES IDX 16 13 18 14 20 15 21 16 22 17 2 18 1 19 6 20 19 22 17 24
REMARK H PARENT 6 21 19 23 17 25
ROOT
ATOM      1  C   UNL     1       3.620  -0.418  -0.272  1.00  0.00     0.123 A 
ATOM      2  C   UNL     1       3.517   0.393   0.858  1.00  0.00     0.093 A 
ATOM      3  C   UNL     1       2.262   0.798   1.313  1.00  0.00     0.131 A 
ATOM      4  C   UNL     1       1.094   0.401   0.650  1.00  0.00     0.076 A 
ATOM      5  C   UNL     1       1.198  -0.409  -0.479  1.00  0.00     0.041 A 
ATOM      6  C   UNL     1       2.458  -0.817  -0.937  1.00  0.00     0.059 A 
ATOM      7  C   UNL     1      -0.014  -0.845  -1.201  1.00  0.00     0.194 C 
ATOM      8  O   UNL     1       0.078  -1.558  -2.193  1.00  0.00    -0.289 OA
ATOM      9  C   UNL     1      -1.341  -0.414  -0.715  1.00  0.00     0.038 A 
ATOM     10  C   UNL     1      -2.495  -0.828  -1.402  1.00  0.00     0.020 A 
ATOM     11  C   UNL     1      -3.768  -0.435  -0.965  1.00  0.00    -0.005 A 
ATOM     12  C   UNL     1      -5.001  -0.877  -1.697  1.00  0.00     0.048 C 
ATOM     13  C   UNL     1      -3.857   0.376   0.167  1.00  0.00     0.161 A 
ATOM     14  C   UNL     1      -2.715   0.792   0.854  1.00  0.00     0.169 A 
ATOM     15  C   UNL     1      -1.448   0.397   0.414  1.00  0.00     0.080 A 
ATOM     16  C   UNL     1      -0.233   0.827   1.128  1.00  0.00     0.202 C 
ATOM     17  O   UNL     1      -0.330   1.542   2.124  1.00  0.00    -0.288 OA
ENDROOT
BRANCH   1  18
ATOM     18  O   UNL     1       4.781  -0.885  -0.823  1.00  0.00    -0.497 OA
ATOM     19  C   UNL     1       5.996  -0.509  -0.185  1.00  0.00     0.278 C 
ENDBRANCH   1  18
BRANCH   3  20
ATOM     20  O   UNL     1       2.254   1.593   2.429  1.00  0.00    -0.507 OA
ATOM     21  H   UNL     1       1.322   1.812   2.652  1.00  0.00     0.293 HD
ENDBRANCH   3  20
BRANCH  14  22
ATOM     22  O   UNL     1      -2.924   1.589   1.954  1.00  0.00    -0.504 OA
ATOM     23  H   UNL     1      -2.046   1.808   2.341  1.00  0.00     0.293 HD
ENDBRANCH  14  22
BRANCH  13  24
ATOM     24  O   UNL     1      -5.084   0.778   0.620  1.00  0.00    -0.504 OA
ATOM     25  H   UNL     1      -4.896   1.327   1.408  1.00  0.00     0.293 HD
ENDBRANCH  13  24
TORSDOF 4
