REMARK SMILES Cc1cc(O)cc2oc(=O)c3c(O)cc(OS(=O)(=O)O)cc3c12
REMARK SMILES IDX 16 1 15 2 2 3 3 4 23 5 4 6 22 7 7 8 6 9 21 10 11 11 8 12
REMARK SMILES IDX 9 13 12 14 14 15 10 16 1 17 5 18 13 20 17 22 18 23 19 24
REMARK SMILES IDX 20 25
REMARK H PARENT 5 19 13 21 20 26
ROOT
ATOM      1  O   UNL     1       3.524  -0.761   1.149  1.00  0.00    -0.362 OA
ENDROOT
BRANCH   1   2
ATOM      2  C   UNL     1       2.479   0.090   0.890  1.00  0.00     0.149 A 
ATOM      3  C   UNL     1      -1.776  -0.961  -0.317  1.00  0.00    -0.036 A 
ATOM      4  C   UNL     1      -3.027  -1.151  -0.955  1.00  0.00     0.050 A 
ATOM      5  C   UNL     1      -1.148   0.312  -0.354  1.00  0.00     0.029 A 
ATOM      6  C   UNL     1      -3.692  -0.090  -1.555  1.00  0.00     0.119 A 
ATOM      7  C   UNL     1       0.200   0.665   0.147  1.00  0.00     0.008 A 
ATOM      8  C   UNL     1      -1.911   1.358  -0.902  1.00  0.00     0.143 A 
ATOM      9  C   UNL     1      -3.152   1.177  -1.514  1.00  0.00     0.094 A 
ATOM     10  C   UNL     1       1.236  -0.272   0.355  1.00  0.00     0.058 A 
ATOM     11  C   UNL     1       0.517   2.016   0.377  1.00  0.00     0.110 A 
ATOM     12  O   UNL     1      -1.495   2.703  -0.809  1.00  0.00    -0.422 OA
ATOM     13  C   UNL     1      -0.428   3.080  -0.020  1.00  0.00     0.347 C 
ATOM     14  C   UNL     1       1.763   2.385   0.913  1.00  0.00     0.134 A 
ATOM     15  C   UNL     1       2.730   1.425   1.184  1.00  0.00     0.095 A 
ATOM     16  O   UNL     1      -0.215   4.252   0.276  1.00  0.00    -0.246 OA
ATOM     17  C   UNL     1      -1.223  -2.171   0.394  1.00  0.00     0.045 C 
BRANCH   6  18
ATOM     18  O   UNL     1      -4.899  -0.254  -2.164  1.00  0.00    -0.508 OA
ATOM     19  H   UNL     1      -5.158  -1.189  -2.109  1.00  0.00     0.293 HD
ENDBRANCH   6  18
BRANCH  14  20
ATOM     20  O   UNL     1       2.124   3.679   1.184  1.00  0.00    -0.507 OA
ATOM     21  H   UNL     1       1.371   4.275   0.967  1.00  0.00     0.293 HD
ENDBRANCH  14  20
ENDBRANCH   1   2
BRANCH   1  22
ATOM     22  S   UNL     1       3.449  -2.378   0.994  1.00  0.00     0.446 S 
ATOM     23  O   UNL     1       2.267  -2.887   1.655  1.00  0.00    -0.158 OA
ATOM     24  O   UNL     1       4.763  -2.912   1.278  1.00  0.00    -0.158 OA
BRANCH  22  25
ATOM     25  O   UNL     1       3.256  -2.593  -0.595  1.00  0.00    -0.254 OA
ATOM     26  H   UNL     1       4.151  -2.639  -0.991  1.00  0.00     0.237 HD
ENDBRANCH  22  25
ENDBRANCH   1  22
TORSDOF 5
