REMARK SMILES CS(=O)(=O)CCNCc1ccc(-c2ccc3ncnc(Nc4ccc(OCc5cccc(F)c5)c(Cl)c4)c3c2)o1
REMARK SMILES IDX 13 1 14 2 15 3 16 4 17 5 18 6 19 7 20 8 38 9 39 10 12 11
REMARK SMILES IDX 9 12 10 13 40 14 11 15 8 16 7 17 6 19 5 20 2 21 3 22 4 23
REMARK SMILES IDX 1 24 21 25 22 27 23 28 37 29 24 30 35 31 25 32 36 33 26 34
REMARK SMILES IDX 27 35 28 36 29 37 34 38 30 39 32 40 31 41 33 42
REMARK H PARENT 7 18 21 26
ROOT
ATOM      1  C   UNL     1       2.322  -0.674   0.965  1.00  0.00     0.018 A 
ATOM      2  C   UNL     1       2.898  -1.136   2.150  1.00  0.00     0.014 A 
ATOM      3  C   UNL     1       2.120  -1.324   3.298  1.00  0.00     0.030 A 
ATOM      4  C   UNL     1       0.759  -1.059   3.315  1.00  0.00     0.076 A 
ATOM      5  N   UNL     1       0.080  -1.273   4.444  1.00  0.00    -0.236 NA
ATOM      6  C   UNL     1      -1.231  -1.015   4.414  1.00  0.00     0.224 A 
ATOM      7  N   UNL     1      -1.920  -0.553   3.367  1.00  0.00    -0.219 NA
ATOM      8  C   UNL     1      -1.225  -0.322   2.238  1.00  0.00     0.141 A 
ATOM      9  C   UNL     1       0.158  -0.578   2.145  1.00  0.00     0.044 A 
ATOM     10  C   UNL     1       0.949  -0.399   0.976  1.00  0.00     0.026 A 
ENDROOT
BRANCH   1  11
ATOM     11  C   UNL     1       3.115  -0.489  -0.249  1.00  0.00     0.134 A 
ATOM     12  C   UNL     1       5.021  -0.502  -1.357  1.00  0.00     0.118 A 
ATOM     13  C   UNL     1       4.052  -0.123  -2.260  1.00  0.00     0.047 A 
ATOM     14  O   UNL     1       4.458  -0.720  -0.134  1.00  0.00    -0.460 OA
ATOM     15  C   UNL     1       2.827  -0.117  -1.549  1.00  0.00     0.051 A 
BRANCH  12  16
ATOM     16  C   UNL     1       6.492  -0.700  -1.451  1.00  0.00     0.157 C 
BRANCH  16  17
ATOM     17  N   UNL     1       7.188   0.510  -0.994  1.00  0.00    -0.309 NA
ATOM     18  H   UNL     1       6.799   0.741  -0.076  1.00  0.00     0.123 HD
BRANCH  17  19
ATOM     19  C   UNL     1       8.635   0.304  -0.855  1.00  0.00     0.097 C 
BRANCH  19  20
ATOM     20  C   UNL     1       9.350   0.198  -2.195  1.00  0.00     0.152 C 
BRANCH  20  21
ATOM     21  S   UNL     1      11.121   0.110  -2.003  1.00  0.00     0.148 S 
ATOM     22  O   UNL     1      11.420  -0.816  -0.927  1.00  0.00    -0.229 OA
ATOM     23  O   UNL     1      11.689  -0.090  -3.323  1.00  0.00    -0.229 OA
ATOM     24  C   UNL     1      11.591   1.741  -1.471  1.00  0.00     0.158 C 
ENDBRANCH  20  21
ENDBRANCH  19  20
ENDBRANCH  17  19
ENDBRANCH  16  17
ENDBRANCH  12  16
ENDBRANCH   1  11
BRANCH   8  25
ATOM     25  N   UNL     1      -1.898   0.221   1.108  1.00  0.00    -0.340 N 
ATOM     26  H   UNL     1      -1.429   1.080   0.839  1.00  0.00     0.168 HD
BRANCH  25  27
ATOM     27  C   UNL     1      -3.288   0.285   0.867  1.00  0.00     0.041 A 
ATOM     28  C   UNL     1      -4.183  -0.672   1.355  1.00  0.00     0.030 A 
ATOM     29  C   UNL     1      -3.788   1.263  -0.000  1.00  0.00     0.050 A 
ATOM     30  C   UNL     1      -5.548  -0.630   1.036  1.00  0.00     0.050 A 
ATOM     31  C   UNL     1      -5.150   1.312  -0.320  1.00  0.00     0.085 A 
ATOM     32  C   UNL     1      -6.047   0.366   0.196  1.00  0.00     0.138 A 
ATOM     33  Cl  UNL     1      -5.683   2.573  -1.380  1.00  0.00    -0.080 Cl
BRANCH  32  34
ATOM     34  O   UNL     1      -7.359   0.490  -0.175  1.00  0.00    -0.487 OA
BRANCH  34  35
ATOM     35  C   UNL     1      -8.275  -0.505   0.274  1.00  0.00     0.265 C 
BRANCH  35  36
ATOM     36  C   UNL     1      -9.643  -0.176  -0.275  1.00  0.00    -0.008 A 
ATOM     37  C   UNL     1     -10.271   1.035   0.063  1.00  0.00     0.007 A 
ATOM     38  C   UNL     1     -10.312  -1.072  -1.119  1.00  0.00     0.046 A 
ATOM     39  C   UNL     1     -11.541   1.342  -0.431  1.00  0.00     0.003 A 
ATOM     40  C   UNL     1     -11.577  -0.755  -1.606  1.00  0.00     0.123 A 
ATOM     41  C   UNL     1     -12.197   0.443  -1.269  1.00  0.00     0.039 A 
ATOM     42  F   UNL     1     -12.207  -1.619  -2.412  1.00  0.00    -0.207 F 
ENDBRANCH  35  36
ENDBRANCH  34  35
ENDBRANCH  32  34
ENDBRANCH  25  27
ENDBRANCH   8  25
TORSDOF 11
