REMARK SMILES COc1ccc(Cc2nc(-c3cc(Br)c(OCCCN(C)C)c(Br)c3)c[nH]c2=O)cc1Br
REMARK SMILES IDX 11 1 12 2 13 3 14 4 15 5 23 6 24 7 25 8 10 9 8 10 9 11 28 12
REMARK SMILES IDX 27 13 29 14 26 15 7 17 6 18 3 19 4 20 31 21 5 22 30 23 32 24
REMARK SMILES IDX 2 25 1 26 16 27 17 28 18 29 19 30 20 31 21 32 22 33
REMARK H PARENT 27 16
ROOT
ATOM      1  C   UNL     1       0.030   1.993   0.170  1.00  0.00     0.004 A 
ATOM      2  C   UNL     1       1.073   2.902   0.401  1.00  0.00     0.030 A 
ATOM      3  C   UNL     1       2.289   2.779  -0.281  1.00  0.00     0.061 A 
ATOM      4  Br  UNL     1       3.628   4.084   0.055  1.00  0.00    -0.047 Br
ATOM      5  C   UNL     1       2.492   1.728  -1.184  1.00  0.00     0.147 A 
ATOM      6  C   UNL     1       1.445   0.835  -1.440  1.00  0.00     0.061 A 
ATOM      7  Br  UNL     1       1.605  -0.560  -2.722  1.00  0.00    -0.047 Br
ATOM      8  C   UNL     1       0.232   0.958  -0.756  1.00  0.00     0.030 A 
ENDROOT
BRANCH   1   9
ATOM      9  C   UNL     1      -1.255   2.074   0.902  1.00  0.00     0.087 C 
ATOM     10  C   UNL     1      -2.899   0.944   2.039  1.00  0.00     0.110 C 
ATOM     11  N   UNL     1      -1.768   0.889   1.389  1.00  0.00    -0.245 NA
ATOM     12  C   UNL     1      -3.657   2.249   2.281  1.00  0.00     0.270 C 
ATOM     13  N   UNL     1      -3.066   3.351   1.714  1.00  0.00    -0.325 N 
ATOM     14  O   UNL     1      -4.687   2.284   2.933  1.00  0.00    -0.268 OA
ATOM     15  C   UNL     1      -1.879   3.260   1.037  1.00  0.00     0.115 C 
ATOM     16  H   UNL     1      -3.537   4.239   1.832  1.00  0.00     0.169 HD
BRANCH  10  17
ATOM     17  C   UNL     1      -3.535  -0.318   2.566  1.00  0.00     0.097 C 
BRANCH  17  18
ATOM     18  C   UNL     1      -4.570  -0.868   1.615  1.00  0.00    -0.040 A 
ATOM     19  C   UNL     1      -6.495  -1.860  -0.202  1.00  0.00     0.133 A 
ATOM     20  C   UNL     1      -5.130  -2.057  -0.432  1.00  0.00     0.048 A 
ATOM     21  C   UNL     1      -6.888  -1.161   0.950  1.00  0.00     0.060 A 
ATOM     22  C   UNL     1      -4.178  -1.563   0.466  1.00  0.00     0.008 A 
ATOM     23  C   UNL     1      -5.936  -0.665   1.848  1.00  0.00     0.023 A 
ATOM     24  Br  UNL     1      -8.721  -0.839   1.339  1.00  0.00    -0.047 Br
BRANCH  19  25
ATOM     25  O   UNL     1      -7.492  -2.318  -1.024  1.00  0.00    -0.496 OA
ATOM     26  C   UNL     1      -7.113  -2.847  -2.288  1.00  0.00     0.278 C 
ENDBRANCH  19  25
ENDBRANCH  17  18
ENDBRANCH  10  17
ENDBRANCH   1   9
BRANCH   5  27
ATOM     27  O   UNL     1       3.678   1.622  -1.867  1.00  0.00    -0.491 OA
BRANCH  27  28
ATOM     28  C   UNL     1       4.599   0.771  -1.163  1.00  0.00     0.231 C 
BRANCH  28  29
ATOM     29  C   UNL     1       5.833   0.605  -2.040  1.00  0.00     0.057 C 
BRANCH  29  30
ATOM     30  C   UNL     1       7.004  -0.128  -1.376  1.00  0.00     0.087 C 
BRANCH  30  31
ATOM     31  N   UNL     1       6.866  -1.541  -1.015  1.00  0.00    -0.309 NA
ATOM     32  C   UNL     1       6.254  -2.364  -2.052  1.00  0.00     0.104 C 
ATOM     33  C   UNL     1       6.274  -1.777   0.293  1.00  0.00     0.104 C 
ENDBRANCH  30  31
ENDBRANCH  29  30
ENDBRANCH  28  29
ENDBRANCH  27  28
ENDBRANCH   5  27
TORSDOF 9
