REMARK SMILES N=C1NC(=O)/C(=C2/CCNC(=O)c3[nH]cc(Br)c32)N1
REMARK SMILES IDX 13 1 14 2 15 3 16 4 17 5 18 6 7 8 1 9 2 10 3 11 19 12 4 13
REMARK SMILES IDX 6 14 5 15 11 20 10 21 12 22 9 24 8 25
REMARK H PARENT 14 7 1 16 3 17 19 18 10 23
REMARK Flexibility Score:   10.900
ROOT
ATOM      1  C   UNL     1      -1.964   1.095   0.177  1.00  0.00     0.113 A 
ATOM      2  N   UNL     1      -2.308   2.424   0.363  1.00  0.00    -0.356 N 
ATOM      3  C   UNL     1      -1.325   3.249  -0.107  1.00  0.00     0.099 A 
ATOM      4  C   UNL     1      -0.293   2.447  -0.520  1.00  0.00     0.043 A 
ATOM      5  Br  UNL     1       1.282   3.059  -1.342  1.00  0.00    -0.048 Br
ATOM      6  C   UNL     1      -0.648   1.096  -0.271  1.00  0.00     0.025 A 
ATOM      7  H   UNL     1      -3.209   2.717   0.724  1.00  0.00     0.166 HD
ENDROOT
BRANCH   6   8
ATOM      8  C   UNL     1       0.120  -0.084  -0.512  1.00  0.00    -0.006 CG0
ATOM      9  N   UNL     1       4.314  -2.132   0.442  1.00  0.00    -0.269 NA
ATOM     10  C   UNL     1       3.321  -1.329   0.453  1.00  0.00     0.200 C 
ATOM     11  N   UNL     1       3.298  -0.196   1.186  1.00  0.00    -0.291 N 
ATOM     12  N   UNL     1       2.158  -1.437  -0.228  1.00  0.00    -0.321 N 
ATOM     13  C   UNL     1       2.101   0.461   1.023  1.00  0.00     0.274 C 
ATOM     14  C   UNL     1       1.337  -0.360  -0.005  1.00  0.00     0.111 C 
ATOM     15  O   UNL     1       1.740   1.443   1.641  1.00  0.00    -0.267 OA
ATOM     16  H   UNL     1       5.055  -1.784   1.055  1.00  0.00     0.191 HD
ATOM     17  H   UNL     1       3.995   0.122   1.836  1.00  0.00     0.173 HD
ATOM     18  H   UNL     1       1.991  -2.159  -0.907  1.00  0.00     0.170 HD
ATOM     19  G   UNL     1      -0.632  -1.066  -1.377  1.00  0.00     0.000 G0
ENDBRANCH   6   8
BRANCH   1  20
ATOM     20  C   UNL     1      -2.936   0.063   0.446  1.00  0.00     0.268 C 
ATOM     21  N   UNL     1      -2.757  -1.215  -0.009  1.00  0.00    -0.350 N 
ATOM     22  O   UNL     1      -3.995   0.312   1.023  1.00  0.00    -0.268 OA
ATOM     23  H   UNL     1      -3.520  -1.808   0.295  1.00  0.00     0.163 HD
BRANCH  21  24
ATOM     24  C   UNL     1      -1.572  -1.893  -0.502  1.00  0.00     0.121 C 
BRANCH  24  25
ATOM     25  C   UNL     1      -0.632  -1.066  -1.377  1.00  0.00     0.060 CG0
ATOM     26  G   UNL     1       0.120  -0.084  -0.512  1.00  0.00     0.000 G0
ENDBRANCH  24  25
ENDBRANCH  21  24
ENDBRANCH   1  20
TORSDOF 0
