REMARK SMILES CCOC(=O)c1nn(-c2ccccc2)c(=O)c2c(N)c(C#N)c(-c3cccs3)cc12
REMARK SMILES IDX 4 1 5 2 3 3 2 4 1 5 6 6 7 7 30 8 8 9 29 10 17 11 15 12 23 13
REMARK SMILES IDX 18 14 16 15 20 16 21 17 22 18 9 19 10 20 14 21 11 22 13 23
REMARK SMILES IDX 12 24 24 25 25 26 28 27 26 28 27 29 19 30
REMARK H PARENT 19 31 19 32
ROOT
ATOM      1  C   UNL     1       0.420   2.252   0.188  1.00  0.00     0.359 C 
ATOM      2  O   UNL     1       0.362   2.956  -0.802  1.00  0.00    -0.244 OA
ENDROOT
BRANCH   1   3
ATOM      3  O   UNL     1       0.301   2.606   1.483  1.00  0.00    -0.461 OA
BRANCH   3   4
ATOM      4  C   UNL     1       0.150   4.011   1.725  1.00  0.00     0.230 C 
ATOM      5  C   UNL     1       1.511   4.675   1.818  1.00  0.00     0.049 C 
ENDBRANCH   3   4
ENDBRANCH   1   3
BRANCH   1   6
ATOM      6  C   UNL     1       0.593   0.750   0.105  1.00  0.00     0.177 C 
ATOM      7  N   UNL     1       1.762   0.288   0.414  1.00  0.00    -0.157 NA
ATOM      8  C   UNL     1      -0.533  -0.083  -0.318  1.00  0.00     0.025 A 
ATOM      9  N   UNL     1       1.995  -1.069   0.379  1.00  0.00    -0.196 N 
ATOM     10  C   UNL     1      -1.768   0.472  -0.673  1.00  0.00     0.022 A 
ATOM     11  C   UNL     1      -0.333  -1.460  -0.366  1.00  0.00     0.076 A 
ATOM     12  C   UNL     1       0.987  -2.002   0.078  1.00  0.00     0.281 C 
ATOM     13  C   UNL     1      -2.822  -0.347  -1.103  1.00  0.00     0.012 A 
ATOM     14  C   UNL     1      -1.389  -2.317  -0.783  1.00  0.00     0.064 A 
ATOM     15  O   UNL     1       1.083  -3.224   0.188  1.00  0.00    -0.267 OA
ATOM     16  C   UNL     1      -2.625  -1.740  -1.175  1.00  0.00     0.084 A 
ATOM     17  C   UNL     1      -3.688  -2.588  -1.647  1.00  0.00     0.102 C 
ATOM     18  N   UNL     1      -4.545  -3.292  -1.990  1.00  0.00    -0.192 NA
BRANCH   9  19
ATOM     19  C   UNL     1       3.348  -1.423   0.739  1.00  0.00     0.069 A 
ATOM     20  C   UNL     1       3.851  -2.729   0.639  1.00  0.00     0.028 A 
ATOM     21  C   UNL     1       4.241  -0.433   1.198  1.00  0.00     0.028 A 
ATOM     22  C   UNL     1       5.172  -3.035   0.993  1.00  0.00     0.002 A 
ATOM     23  C   UNL     1       5.561  -0.735   1.553  1.00  0.00     0.002 A 
ATOM     24  C   UNL     1       6.026  -2.039   1.452  1.00  0.00     0.000 A 
ENDBRANCH   9  19
BRANCH  13  25
ATOM     25  C   UNL     1      -4.097   0.282  -1.464  1.00  0.00     0.036 A 
ATOM     26  C   UNL     1      -5.312   0.219  -0.809  1.00  0.00     0.020 A 
ATOM     27  S   UNL     1      -4.196   1.236  -2.885  1.00  0.00    -0.144 S 
ATOM     28  C   UNL     1      -6.328   0.959  -1.483  1.00  0.00     0.012 A 
ATOM     29  C   UNL     1      -5.855   1.561  -2.627  1.00  0.00     0.065 A 
ENDBRANCH  13  25
BRANCH  14  30
ATOM     30  N   UNL     1      -1.151  -3.690  -1.022  1.00  0.00    -0.397 N 
ATOM     31  H   UNL     1      -1.941  -4.324  -0.939  1.00  0.00     0.156 HD
ATOM     32  H   UNL     1      -0.320  -4.044  -0.528  1.00  0.00     0.156 HD
ENDBRANCH  14  30
ENDBRANCH   1   6
TORSDOF 6
