REMARK SMILES C#Cc1cccc(Nc2ncnc3cc(OCCOC)c(OCCOC)cc23)c1
REMARK SMILES IDX 9 1 10 2 11 3 12 4 13 5 14 6 15 7 21 8 27 9 28 10 8 11 7 13
REMARK SMILES IDX 2 14 3 15 4 16 29 17 5 18 6 19 1 20 22 21 23 22 24 23 25 24
REMARK SMILES IDX 26 25 16 26 17 27 18 28 19 29 20 30
REMARK H PARENT 8 12
ROOT
ATOM      1  C   UNL     1       2.097  -0.867   0.822  1.00  0.00     0.141 A 
ATOM      2  N   UNL     1       2.808  -2.004   0.918  1.00  0.00    -0.219 NA
ATOM      3  C   UNL     1       2.139  -3.149   0.766  1.00  0.00     0.224 A 
ATOM      4  N   UNL     1       0.829  -3.271   0.530  1.00  0.00    -0.236 NA
ATOM      5  C   UNL     1       0.129  -2.138   0.421  1.00  0.00     0.080 A 
ATOM      6  C   UNL     1      -1.233  -2.229   0.167  1.00  0.00     0.079 A 
ATOM      7  C   UNL     1      -2.039  -1.094   0.029  1.00  0.00     0.163 A 
ATOM      8  C   UNL     1      -1.461   0.180   0.136  1.00  0.00     0.162 A 
ATOM      9  C   UNL     1      -0.094   0.284   0.398  1.00  0.00     0.064 A 
ATOM     10  C   UNL     1       0.713  -0.873   0.552  1.00  0.00     0.047 A 
ENDROOT
BRANCH   1  11
ATOM     11  N   UNL     1       2.750   0.381   1.022  1.00  0.00    -0.340 N 
ATOM     12  H   UNL     1       2.275   0.878   1.769  1.00  0.00     0.168 HD
BRANCH  11  13
ATOM     13  C   UNL     1       4.138   0.652   1.029  1.00  0.00     0.041 A 
ATOM     14  C   UNL     1       7.337  -0.515  -0.522  1.00  0.00    -0.070 C 
ATOM     15  C   UNL     1       6.414   0.261   0.248  1.00  0.00     0.026 A 
ATOM     16  C   UNL     1       6.865   1.367   0.969  1.00  0.00     0.017 A 
ATOM     17  C   UNL     1       5.057  -0.083   0.270  1.00  0.00     0.043 A 
ATOM     18  C   UNL     1       5.959   2.133   1.699  1.00  0.00     0.003 A 
ATOM     19  C   UNL     1       4.606   1.784   1.717  1.00  0.00     0.026 A 
ATOM     20  C   UNL     1       8.112  -1.166  -1.168  1.00  0.00     0.010 C 
ENDBRANCH  11  13
ENDBRANCH   1  11
BRANCH   8  21
ATOM     21  O   UNL     1      -2.309   1.245  -0.018  1.00  0.00    -0.487 OA
BRANCH  21  22
ATOM     22  C   UNL     1      -1.735   2.547  -0.114  1.00  0.00     0.258 C 
BRANCH  22  23
ATOM     23  C   UNL     1      -2.855   3.551  -0.388  1.00  0.00     0.201 C 
BRANCH  23  24
ATOM     24  O   UNL     1      -2.364   4.890  -0.454  1.00  0.00    -0.381 OA
ATOM     25  C   UNL     1      -1.859   5.230  -1.739  1.00  0.00     0.195 C 
ENDBRANCH  23  24
ENDBRANCH  22  23
ENDBRANCH  21  22
ENDBRANCH   8  21
BRANCH   7  26
ATOM     26  O   UNL     1      -3.388  -1.122  -0.222  1.00  0.00    -0.487 OA
BRANCH  26  27
ATOM     27  C   UNL     1      -4.028  -2.394  -0.302  1.00  0.00     0.258 C 
BRANCH  27  28
ATOM     28  C   UNL     1      -5.516  -2.169  -0.570  1.00  0.00     0.201 C 
BRANCH  28  29
ATOM     29  O   UNL     1      -6.229  -3.398  -0.709  1.00  0.00    -0.381 OA
ATOM     30  C   UNL     1      -6.598  -3.971   0.539  1.00  0.00     0.195 C 
ENDBRANCH  28  29
ENDBRANCH  27  28
ENDBRANCH  26  27
ENDBRANCH   7  26
TORSDOF 10
