REMARK SMILES O=C1C[C@H](O)[C@@H]2c3c(ccc(O)c31)-c1ccc(O)c3c1[C@@]2(O)CCC3=O
REMARK SMILES IDX 1 1 2 2 3 3 4 4 6 5 7 6 8 7 9 8 10 9 11 10 13 11 14 12 15 13
REMARK SMILES IDX 16 14 17 15 19 16 20 17 21 18 23 19 24 20 25 21 26 22 5 23
REMARK SMILES IDX 12 25 22 27 18 29
REMARK H PARENT 5 24 12 26 22 28 18 30
ROOT
ATOM      1  O   UNL     1      -4.875  -0.244   0.410  1.00  0.00    -0.294 OA
ATOM      2  C   UNL     1      -3.658  -0.278   0.587  1.00  0.00     0.169 C 
ATOM      3  C   UNL     1      -3.019  -1.246   1.532  1.00  0.00     0.113 C 
ATOM      4  C   UNL     1      -1.681  -1.731   1.002  1.00  0.00     0.133 C 
ATOM      5  C   UNL     1      -0.705  -0.559   0.746  1.00  0.00     0.086 C 
ATOM      6  C   UNL     1      -1.384   0.603   0.017  1.00  0.00    -0.017 A 
ATOM      7  C   UNL     1      -0.561   1.599  -0.565  1.00  0.00    -0.013 A 
ATOM      8  C   UNL     1      -1.177   2.646  -1.276  1.00  0.00     0.013 A 
ATOM      9  C   UNL     1      -2.564   2.732  -1.390  1.00  0.00     0.047 A 
ATOM     10  C   UNL     1      -3.364   1.773  -0.791  1.00  0.00     0.126 A 
ATOM     11  C   UNL     1      -2.785   0.714  -0.080  1.00  0.00     0.064 A 
ATOM     12  C   UNL     1       0.912   1.488  -0.457  1.00  0.00    -0.011 A 
ATOM     13  C   UNL     1       1.754   2.610  -0.570  1.00  0.00     0.013 A 
ATOM     14  C   UNL     1       3.141   2.487  -0.516  1.00  0.00     0.047 A 
ATOM     15  C   UNL     1       3.716   1.236  -0.355  1.00  0.00     0.126 A 
ATOM     16  C   UNL     1       2.910   0.098  -0.218  1.00  0.00     0.066 A 
ATOM     17  C   UNL     1       1.504   0.219  -0.236  1.00  0.00     0.007 A 
ATOM     18  C   UNL     1       0.593  -0.991  -0.036  1.00  0.00     0.101 C 
ATOM     19  C   UNL     1       1.353  -2.120   0.680  1.00  0.00     0.049 C 
ATOM     20  C   UNL     1       2.669  -2.446  -0.006  1.00  0.00     0.084 C 
ATOM     21  C   UNL     1       3.551  -1.234  -0.074  1.00  0.00     0.167 C 
ATOM     22  O   UNL     1       4.779  -1.323  -0.066  1.00  0.00    -0.294 OA
ENDROOT
BRANCH   4  23
ATOM     23  O   UNL     1      -1.143  -2.595   2.008  1.00  0.00    -0.392 OA
ATOM     24  H   UNL     1      -1.709  -3.388   2.053  1.00  0.00     0.210 HD
ENDBRANCH   4  23
BRANCH  10  25
ATOM     25  O   UNL     1      -4.714   1.935  -0.941  1.00  0.00    -0.507 OA
ATOM     26  H   UNL     1      -5.166   1.181  -0.499  1.00  0.00     0.293 HD
ENDBRANCH  10  25
BRANCH  18  27
ATOM     27  O   UNL     1       0.217  -1.500  -1.326  1.00  0.00    -0.384 OA
ATOM     28  H   UNL     1       0.252  -0.772  -1.972  1.00  0.00     0.211 HD
ENDBRANCH  18  27
BRANCH  15  29
ATOM     29  O   UNL     1       5.084   1.202  -0.339  1.00  0.00    -0.507 OA
ATOM     30  H   UNL     1       5.366   0.264  -0.233  1.00  0.00     0.293 HD
ENDBRANCH  15  29
TORSDOF 4
