REMARK SMILES COc1ccc(-c2cc(=O)c3c(O)cc(O)cc3o2)cc1
REMARK SMILES IDX 7 1 8 2 9 3 10 4 11 5 12 6 14 7 15 8 17 9 18 10 19 11 6 12
REMARK SMILES IDX 3 13 4 14 21 15 5 16 20 17 2 18 1 19 13 20 16 22
REMARK H PARENT 13 21 16 23
ROOT
ATOM      1  C   UNL     1      -0.161   0.419  -0.070  1.00  0.00     0.138 C 
ATOM      2  C   UNL     1      -0.629   1.675  -0.032  1.00  0.00     0.100 C 
ATOM      3  C   UNL     1      -2.079   1.893   0.066  1.00  0.00     0.197 C 
ATOM      4  O   UNL     1      -2.559   3.020   0.113  1.00  0.00    -0.289 OA
ATOM      5  C   UNL     1      -2.933   0.701   0.109  1.00  0.00     0.107 A 
ATOM      6  C   UNL     1      -4.326   0.797   0.202  1.00  0.00     0.134 A 
ATOM      7  C   UNL     1      -5.108  -0.355   0.240  1.00  0.00     0.093 A 
ATOM      8  C   UNL     1      -4.485  -1.599   0.183  1.00  0.00     0.123 A 
ATOM      9  C   UNL     1      -3.100  -1.707   0.090  1.00  0.00     0.094 A 
ATOM     10  C   UNL     1      -2.322  -0.550   0.053  1.00  0.00     0.146 A 
ATOM     11  O   UNL     1      -0.963  -0.712  -0.040  1.00  0.00    -0.456 OA
ENDROOT
BRANCH   1  12
ATOM     12  C   UNL     1       1.282   0.133  -0.179  1.00  0.00     0.018 A 
ATOM     13  C   UNL     1       4.037  -0.457  -0.392  1.00  0.00     0.118 A 
ATOM     14  C   UNL     1       3.099  -1.163  -1.146  1.00  0.00     0.047 A 
ATOM     15  C   UNL     1       3.598   0.541   0.476  1.00  0.00     0.047 A 
ATOM     16  C   UNL     1       1.734  -0.875  -1.040  1.00  0.00     0.016 A 
ATOM     17  C   UNL     1       2.231   0.831   0.583  1.00  0.00     0.016 A 
BRANCH  13  18
ATOM     18  O   UNL     1       5.335  -0.838  -0.592  1.00  0.00    -0.497 OA
ATOM     19  C   UNL     1       6.330  -0.151   0.156  1.00  0.00     0.278 C 
ENDBRANCH  13  18
ENDBRANCH   1  12
BRANCH   6  20
ATOM     20  O   UNL     1      -4.988   1.994   0.261  1.00  0.00    -0.507 OA
ATOM     21  H   UNL     1      -4.320   2.716   0.224  1.00  0.00     0.293 HD
ENDBRANCH   6  20
BRANCH   8  22
ATOM     22  O   UNL     1      -5.208  -2.755   0.217  1.00  0.00    -0.508 OA
ATOM     23  H   UNL     1      -6.153  -2.532   0.283  1.00  0.00     0.293 HD
ENDBRANCH   8  22
TORSDOF 4
