MODEL 1
REMARK VINA RESULT:    -8.819      0.000      0.000
REMARK INTER + INTRA:         -17.232
REMARK INTER:                 -14.490
REMARK INTRA:                  -2.742
REMARK UNBOUND:                -2.742
REMARK SMILES CS(=O)(=O)CCNCc1ccc(-c2ccc3ncnc(Nc4ccc(OCc5cccc(F)c5)c(Cl)c4)c3c2)o1
REMARK SMILES IDX 13 1 14 2 15 3 16 4 17 5 18 6 19 7 20 8 38 9 39 10 12 11
REMARK SMILES IDX 9 12 10 13 40 14 11 15 8 16 7 17 6 19 5 20 2 21 3 22 4 23
REMARK SMILES IDX 1 24 21 25 22 27 23 28 37 29 24 30 35 31 25 32 36 33 26 34
REMARK SMILES IDX 27 35 28 36 29 37 34 38 30 39 32 40 31 41 33 42
REMARK H PARENT 7 18 21 26
ROOT
ATOM      1  C   UNL     1      22.238  -0.256  53.351  1.00  0.00     0.018 A 
ATOM      2  C   UNL     1      22.836  -0.943  54.409  1.00  0.00     0.014 A 
ATOM      3  C   UNL     1      24.205  -0.808  54.667  1.00  0.00     0.030 A 
ATOM      4  C   UNL     1      25.023  -0.000  53.890  1.00  0.00     0.076 A 
ATOM      5  N   UNL     1      26.317   0.088  54.204  1.00  0.00    -0.236 NA
ATOM      6  C   UNL     1      27.067   0.885  53.437  1.00  0.00     0.224 A 
ATOM      7  N   UNL     1      26.646   1.589  52.383  1.00  0.00    -0.219 NA
ATOM      8  C   UNL     1      25.344   1.480  52.062  1.00  0.00     0.141 A 
ATOM      9  C   UNL     1      24.452   0.687  52.812  1.00  0.00     0.044 A 
ATOM     10  C   UNL     1      23.058   0.557  52.559  1.00  0.00     0.026 A 
ENDROOT
BRANCH   1  11
ATOM     11  C   UNL     1      20.806  -0.370  53.078  1.00  0.00     0.134 A 
ATOM     12  C   UNL     1      18.988   0.143  51.940  1.00  0.00     0.118 A 
ATOM     13  C   UNL     1      18.597  -0.755  52.909  1.00  0.00     0.047 A 
ATOM     14  O   UNL     1      20.327   0.384  52.042  1.00  0.00    -0.460 OA
ATOM     15  C   UNL     1      19.765  -1.087  53.639  1.00  0.00     0.051 A 
BRANCH  12  16
ATOM     16  C   UNL     1      18.267   0.872  50.864  1.00  0.00     0.157 C 
BRANCH  16  17
ATOM     17  N   UNL     1      19.135   1.013  49.688  1.00  0.00    -0.309 NA
ATOM     18  H   UNL     1      18.813   0.325  49.003  1.00  0.00     0.123 HD
BRANCH  17  19
ATOM     19  C   UNL     1      19.053   2.351  49.089  1.00  0.00     0.097 C 
BRANCH  19  20
ATOM     20  C   UNL     1      19.354   3.465  50.081  1.00  0.00     0.152 C 
BRANCH  20  21
ATOM     21  S   UNL     1      21.107   3.685  50.328  1.00  0.00     0.148 S 
ATOM     22  O   UNL     1      21.785   2.473  49.908  1.00  0.00    -0.229 OA
ATOM     23  O   UNL     1      21.466   4.966  49.748  1.00  0.00    -0.229 OA
ATOM     24  C   UNL     1      21.291   3.836  52.090  1.00  0.00     0.158 C 
ENDBRANCH  20  21
ENDBRANCH  19  20
ENDBRANCH  17  19
ENDBRANCH  16  17
ENDBRANCH  12  16
ENDBRANCH   1  11
BRANCH   8  25
ATOM     25  N   UNL     1      24.852   2.167  50.917  1.00  0.00    -0.340 N 
ATOM     26  H   UNL     1      24.584   1.477  50.222  1.00  0.00     0.168 HD
BRANCH  25  27
ATOM     27  C   UNL     1      25.356   3.343  50.320  1.00  0.00     0.041 A 
ATOM     28  C   UNL     1      26.483   3.346  49.492  1.00  0.00     0.030 A 
ATOM     29  C   UNL     1      24.798   4.579  50.666  1.00  0.00     0.050 A 
ATOM     30  C   UNL     1      27.011   4.538  48.975  1.00  0.00     0.050 A 
ATOM     31  C   UNL     1      25.319   5.772  50.151  1.00  0.00     0.085 A 
ATOM     32  C   UNL     1      26.431   5.765  49.298  1.00  0.00     0.138 A 
ATOM     33  Cl  UNL     1      24.548   7.252  50.612  1.00  0.00    -0.080 Cl
BRANCH  32  34
ATOM     34  O   UNL     1      26.873   6.980  48.847  1.00  0.00    -0.487 OA
BRANCH  34  35
ATOM     35  C   UNL     1      27.802   6.992  47.766  1.00  0.00     0.265 C 
BRANCH  35  36
ATOM     36  C   UNL     1      29.161   7.366  48.310  1.00  0.00    -0.008 A 
ATOM     37  C   UNL     1      30.204   6.424  48.323  1.00  0.00     0.007 A 
ATOM     38  C   UNL     1      29.403   8.649  48.817  1.00  0.00     0.046 A 
ATOM     39  C   UNL     1      31.460   6.757  48.835  1.00  0.00     0.003 A 
ATOM     40  C   UNL     1      30.659   8.971  49.324  1.00  0.00     0.123 A 
ATOM     41  C   UNL     1      31.689   8.036  49.337  1.00  0.00     0.039 A 
ATOM     42  F   UNL     1      30.878  10.200  49.806  1.00  0.00    -0.207 F 
ENDBRANCH  35  36
ENDBRANCH  34  35
ENDBRANCH  32  34
ENDBRANCH  25  27
ENDBRANCH   8  25
TORSDOF 11
ENDMDL
MODEL 2
REMARK VINA RESULT:    -8.531      2.922      5.709
REMARK INTER + INTRA:         -16.760
REMARK INTER:                 -14.583
REMARK INTRA:                  -2.177
REMARK UNBOUND:                -2.742
REMARK SMILES CS(=O)(=O)CCNCc1ccc(-c2ccc3ncnc(Nc4ccc(OCc5cccc(F)c5)c(Cl)c4)c3c2)o1
REMARK SMILES IDX 13 1 14 2 15 3 16 4 17 5 18 6 19 7 20 8 38 9 39 10 12 11
REMARK SMILES IDX 9 12 10 13 40 14 11 15 8 16 7 17 6 19 5 20 2 21 3 22 4 23
REMARK SMILES IDX 1 24 21 25 22 27 23 28 37 29 24 30 35 31 25 32 36 33 26 34
REMARK SMILES IDX 27 35 28 36 29 37 34 38 30 39 32 40 31 41 33 42
REMARK H PARENT 7 18 21 26
ROOT
ATOM      1  C   UNL     1      19.797   0.206  52.702  1.00  0.00     0.018 A 
ATOM      2  C   UNL     1      18.604  -0.414  52.325  1.00  0.00     0.014 A 
ATOM      3  C   UNL     1      17.622   0.292  51.620  1.00  0.00     0.030 A 
ATOM      4  C   UNL     1      17.783   1.624  51.271  1.00  0.00     0.076 A 
ATOM      5  N   UNL     1      16.808   2.229  50.589  1.00  0.00    -0.236 NA
ATOM      6  C   UNL     1      17.008   3.510  50.264  1.00  0.00     0.224 A 
ATOM      7  N   UNL     1      18.083   4.242  50.568  1.00  0.00    -0.219 NA
ATOM      8  C   UNL     1      19.054   3.631  51.272  1.00  0.00     0.141 A 
ATOM      9  C   UNL     1      18.963   2.276  51.652  1.00  0.00     0.044 A 
ATOM     10  C   UNL     1      19.964   1.553  52.358  1.00  0.00     0.026 A 
ENDROOT
BRANCH   1  11
ATOM     11  C   UNL     1      20.841  -0.520  53.422  1.00  0.00     0.134 A 
ATOM     12  C   UNL     1      22.950  -0.907  53.937  1.00  0.00     0.118 A 
ATOM     13  C   UNL     1      22.203  -1.812  54.660  1.00  0.00     0.047 A 
ATOM     14  O   UNL     1      22.128  -0.125  53.181  1.00  0.00    -0.460 OA
ATOM     15  C   UNL     1      20.848  -1.562  54.331  1.00  0.00     0.051 A 
BRANCH  12  16
ATOM     16  C   UNL     1      24.408  -0.639  53.821  1.00  0.00     0.157 C 
BRANCH  16  17
ATOM     17  N   UNL     1      24.638   0.465  52.880  1.00  0.00    -0.309 NA
ATOM     18  H   UNL     1      23.715   0.783  52.573  1.00  0.00     0.123 HD
BRANCH  17  19
ATOM     19  C   UNL     1      25.343   1.592  53.502  1.00  0.00     0.097 C 
BRANCH  19  20
ATOM     20  C   UNL     1      26.314   1.156  54.591  1.00  0.00     0.152 C 
BRANCH  20  21
ATOM     21  S   UNL     1      27.932   0.789  53.937  1.00  0.00     0.148 S 
ATOM     22  O   UNL     1      28.748   0.249  55.009  1.00  0.00    -0.229 OA
ATOM     23  O   UNL     1      27.742   0.038  52.710  1.00  0.00    -0.229 OA
ATOM     24  C   UNL     1      28.598   2.375  53.485  1.00  0.00     0.158 C 
ENDBRANCH  20  21
ENDBRANCH  19  20
ENDBRANCH  17  19
ENDBRANCH  16  17
ENDBRANCH  12  16
ENDBRANCH   1  11
BRANCH   8  25
ATOM     25  N   UNL     1      20.198   4.378  51.669  1.00  0.00    -0.340 N 
ATOM     26  H   UNL     1      19.887   5.165  52.229  1.00  0.00     0.168 HD
BRANCH  25  27
ATOM     27  C   UNL     1      21.341   4.698  50.904  1.00  0.00     0.041 A 
ATOM     28  C   UNL     1      21.880   3.826  49.953  1.00  0.00     0.030 A 
ATOM     29  C   UNL     1      22.048   5.871  51.189  1.00  0.00     0.050 A 
ATOM     30  C   UNL     1      23.061   4.134  49.262  1.00  0.00     0.050 A 
ATOM     31  C   UNL     1      23.226   6.185  50.501  1.00  0.00     0.085 A 
ATOM     32  C   UNL     1      23.746   5.320  49.528  1.00  0.00     0.138 A 
ATOM     33  Cl  UNL     1      24.021   7.671  50.901  1.00  0.00    -0.080 Cl
BRANCH  32  34
ATOM     34  O   UNL     1      24.905   5.708  48.910  1.00  0.00    -0.487 OA
BRANCH  34  35
ATOM     35  C   UNL     1      26.092   4.974  49.199  1.00  0.00     0.265 C 
BRANCH  35  36
ATOM     36  C   UNL     1      27.268   5.722  48.618  1.00  0.00    -0.008 A 
ATOM     37  C   UNL     1      27.132   7.064  48.224  1.00  0.00     0.007 A 
ATOM     38  C   UNL     1      28.508   5.091  48.452  1.00  0.00     0.046 A 
ATOM     39  C   UNL     1      28.212   7.759  47.675  1.00  0.00     0.003 A 
ATOM     40  C   UNL     1      29.577   5.794  47.905  1.00  0.00     0.123 A 
ATOM     41  C   UNL     1      29.440   7.122  47.515  1.00  0.00     0.039 A 
ATOM     42  F   UNL     1      30.758   5.181  47.751  1.00  0.00    -0.207 F 
ENDBRANCH  35  36
ENDBRANCH  34  35
ENDBRANCH  32  34
ENDBRANCH  25  27
ENDBRANCH   8  25
TORSDOF 11
ENDMDL
MODEL 3
REMARK VINA RESULT:    -8.525      3.083      5.561
REMARK INTER + INTRA:         -16.749
REMARK INTER:                 -14.692
REMARK INTRA:                  -2.057
REMARK UNBOUND:                -2.742
REMARK SMILES CS(=O)(=O)CCNCc1ccc(-c2ccc3ncnc(Nc4ccc(OCc5cccc(F)c5)c(Cl)c4)c3c2)o1
REMARK SMILES IDX 13 1 14 2 15 3 16 4 17 5 18 6 19 7 20 8 38 9 39 10 12 11
REMARK SMILES IDX 9 12 10 13 40 14 11 15 8 16 7 17 6 19 5 20 2 21 3 22 4 23
REMARK SMILES IDX 1 24 21 25 22 27 23 28 37 29 24 30 35 31 25 32 36 33 26 34
REMARK SMILES IDX 27 35 28 36 29 37 34 38 30 39 32 40 31 41 33 42
REMARK H PARENT 7 18 21 26
ROOT
ATOM      1  C   UNL     1      20.822   1.047  52.731  1.00  0.00     0.018 A 
ATOM      2  C   UNL     1      19.550   0.774  52.226  1.00  0.00     0.014 A 
ATOM      3  C   UNL     1      18.874   1.714  51.440  1.00  0.00     0.030 A 
ATOM      4  C   UNL     1      19.427   2.949  51.134  1.00  0.00     0.076 A 
ATOM      5  N   UNL     1      18.728   3.790  50.369  1.00  0.00    -0.236 NA
ATOM      6  C   UNL     1      19.301   4.965  50.090  1.00  0.00     0.224 A 
ATOM      7  N   UNL     1      20.499   5.378  50.512  1.00  0.00    -0.219 NA
ATOM      8  C   UNL     1      21.190   4.531  51.298  1.00  0.00     0.141 A 
ATOM      9  C   UNL     1      20.695   3.257  51.642  1.00  0.00     0.044 A 
ATOM     10  C   UNL     1      21.385   2.294  52.430  1.00  0.00     0.026 A 
ENDROOT
BRANCH   1  11
ATOM     11  C   UNL     1      21.551   0.070  53.538  1.00  0.00     0.134 A 
ATOM     12  C   UNL     1      23.408  -0.788  54.359  1.00  0.00     0.118 A 
ATOM     13  C   UNL     1      22.377  -1.561  54.847  1.00  0.00     0.047 A 
ATOM     14  O   UNL     1      22.912   0.199  53.560  1.00  0.00    -0.460 OA
ATOM     15  C   UNL     1      21.183  -1.008  54.321  1.00  0.00     0.051 A 
BRANCH  12  16
ATOM     16  C   UNL     1      24.886  -0.827  54.520  1.00  0.00     0.157 C 
BRANCH  16  17
ATOM     17  N   UNL     1      25.487   0.355  53.888  1.00  0.00    -0.309 NA
ATOM     18  H   UNL     1      26.174   0.723  54.551  1.00  0.00     0.123 HD
BRANCH  17  19
ATOM     19  C   UNL     1      26.174   0.029  52.631  1.00  0.00     0.097 C 
BRANCH  19  20
ATOM     20  C   UNL     1      27.458  -0.761  52.845  1.00  0.00     0.152 C 
BRANCH  20  21
ATOM     21  S   UNL     1      28.646   0.145  53.819  1.00  0.00     0.148 S 
ATOM     22  O   UNL     1      28.818   1.458  53.226  1.00  0.00    -0.229 OA
ATOM     23  O   UNL     1      28.256   0.012  55.210  1.00  0.00    -0.229 OA
ATOM     24  C   UNL     1      30.167  -0.754  53.611  1.00  0.00     0.158 C 
ENDBRANCH  20  21
ENDBRANCH  19  20
ENDBRANCH  17  19
ENDBRANCH  16  17
ENDBRANCH  12  16
ENDBRANCH   1  11
BRANCH   8  25
ATOM     25  N   UNL     1      22.448   4.940  51.821  1.00  0.00    -0.340 N 
ATOM     26  H   UNL     1      22.286   5.660  52.518  1.00  0.00     0.168 HD
BRANCH  25  27
ATOM     27  C   UNL     1      23.658   5.151  51.123  1.00  0.00     0.041 A 
ATOM     28  C   UNL     1      24.076   6.418  50.704  1.00  0.00     0.030 A 
ATOM     29  C   UNL     1      24.412   4.046  50.712  1.00  0.00     0.050 A 
ATOM     30  C   UNL     1      25.242   6.591  49.944  1.00  0.00     0.050 A 
ATOM     31  C   UNL     1      25.577   4.212  49.955  1.00  0.00     0.085 A 
ATOM     32  C   UNL     1      26.007   5.488  49.563  1.00  0.00     0.138 A 
ATOM     33  Cl  UNL     1      26.461   2.790  49.514  1.00  0.00    -0.080 Cl
BRANCH  32  34
ATOM     34  O   UNL     1      27.156   5.554  48.821  1.00  0.00    -0.487 OA
BRANCH  34  35
ATOM     35  C   UNL     1      27.533   6.820  48.287  1.00  0.00     0.265 C 
BRANCH  35  36
ATOM     36  C   UNL     1      28.949   6.718  47.772  1.00  0.00    -0.008 A 
ATOM     37  C   UNL     1      29.421   7.624  46.807  1.00  0.00     0.007 A 
ATOM     38  C   UNL     1      29.812   5.717  48.238  1.00  0.00     0.046 A 
ATOM     39  C   UNL     1      30.725   7.530  46.317  1.00  0.00     0.003 A 
ATOM     40  C   UNL     1      31.110   5.633  47.744  1.00  0.00     0.123 A 
ATOM     41  C   UNL     1      31.574   6.530  46.788  1.00  0.00     0.039 A 
ATOM     42  F   UNL     1      31.926   4.673  48.197  1.00  0.00    -0.207 F 
ENDBRANCH  35  36
ENDBRANCH  34  35
ENDBRANCH  32  34
ENDBRANCH  25  27
ENDBRANCH   8  25
TORSDOF 11
ENDMDL
MODEL 4
REMARK VINA RESULT:    -8.521      2.575      4.988
REMARK INTER + INTRA:         -16.742
REMARK INTER:                 -14.238
REMARK INTRA:                  -2.504
REMARK UNBOUND:                -2.742
REMARK SMILES CS(=O)(=O)CCNCc1ccc(-c2ccc3ncnc(Nc4ccc(OCc5cccc(F)c5)c(Cl)c4)c3c2)o1
REMARK SMILES IDX 13 1 14 2 15 3 16 4 17 5 18 6 19 7 20 8 38 9 39 10 12 11
REMARK SMILES IDX 9 12 10 13 40 14 11 15 8 16 7 17 6 19 5 20 2 21 3 22 4 23
REMARK SMILES IDX 1 24 21 25 22 27 23 28 37 29 24 30 35 31 25 32 36 33 26 34
REMARK SMILES IDX 27 35 28 36 29 37 34 38 30 39 32 40 31 41 33 42
REMARK H PARENT 7 18 21 26
ROOT
ATOM      1  C   UNL     1      21.927   0.549  51.975  1.00  0.00     0.018 A 
ATOM      2  C   UNL     1      20.765   0.195  51.287  1.00  0.00     0.014 A 
ATOM      3  C   UNL     1      20.461   0.776  50.050  1.00  0.00     0.030 A 
ATOM      4  C   UNL     1      21.286   1.721  49.460  1.00  0.00     0.076 A 
ATOM      5  N   UNL     1      20.937   2.223  48.273  1.00  0.00    -0.236 NA
ATOM      6  C   UNL     1      21.765   3.123  47.735  1.00  0.00     0.224 A 
ATOM      7  N   UNL     1      22.899   3.575  48.277  1.00  0.00    -0.219 NA
ATOM      8  C   UNL     1      23.235   3.078  49.482  1.00  0.00     0.141 A 
ATOM      9  C   UNL     1      22.450   2.107  50.136  1.00  0.00     0.044 A 
ATOM     10  C   UNL     1      22.763   1.507  51.388  1.00  0.00     0.026 A 
ENDROOT
BRANCH   1  11
ATOM     11  C   UNL     1      22.270  -0.061  53.259  1.00  0.00     0.134 A 
ATOM     12  C   UNL     1      23.715  -0.897  54.699  1.00  0.00     0.118 A 
ATOM     13  C   UNL     1      22.478  -0.982  55.299  1.00  0.00     0.047 A 
ATOM     14  O   UNL     1      23.593  -0.343  53.459  1.00  0.00    -0.460 OA
ATOM     15  C   UNL     1      21.550  -0.443  54.375  1.00  0.00     0.051 A 
BRANCH  12  16
ATOM     16  C   UNL     1      25.089  -1.282  55.118  1.00  0.00     0.157 C 
BRANCH  16  17
ATOM     17  N   UNL     1      25.969  -0.107  55.080  1.00  0.00    -0.309 NA
ATOM     18  H   UNL     1      26.234   0.091  56.048  1.00  0.00     0.123 HD
BRANCH  17  19
ATOM     19  C   UNL     1      27.188  -0.347  54.297  1.00  0.00     0.097 C 
BRANCH  19  20
ATOM     20  C   UNL     1      27.023  -0.008  52.822  1.00  0.00     0.152 C 
BRANCH  20  21
ATOM     21  S   UNL     1      26.850   1.746  52.555  1.00  0.00     0.148 S 
ATOM     22  O   UNL     1      26.872   1.997  51.126  1.00  0.00    -0.229 OA
ATOM     23  O   UNL     1      25.732   2.198  53.362  1.00  0.00    -0.229 OA
ATOM     24  C   UNL     1      28.324   2.450  53.259  1.00  0.00     0.158 C 
ENDBRANCH  20  21
ENDBRANCH  19  20
ENDBRANCH  17  19
ENDBRANCH  16  17
ENDBRANCH  12  16
ENDBRANCH   1  11
BRANCH   8  25
ATOM     25  N   UNL     1      24.405   3.563  50.130  1.00  0.00    -0.340 N 
ATOM     26  H   UNL     1      24.319   3.378  51.125  1.00  0.00     0.168 HD
BRANCH  25  27
ATOM     27  C   UNL     1      25.111   4.760  49.878  1.00  0.00     0.041 A 
ATOM     28  C   UNL     1      24.584   6.022  50.170  1.00  0.00     0.030 A 
ATOM     29  C   UNL     1      26.329   4.705  49.191  1.00  0.00     0.050 A 
ATOM     30  C   UNL     1      25.271   7.198  49.837  1.00  0.00     0.050 A 
ATOM     31  C   UNL     1      27.021   5.875  48.859  1.00  0.00     0.085 A 
ATOM     32  C   UNL     1      26.500   7.137  49.180  1.00  0.00     0.138 A 
ATOM     33  Cl  UNL     1      28.533   5.709  48.032  1.00  0.00    -0.080 Cl
BRANCH  32  34
ATOM     34  O   UNL     1      27.245   8.226  48.812  1.00  0.00    -0.487 OA
BRANCH  34  35
ATOM     35  C   UNL     1      27.771   9.052  49.847  1.00  0.00     0.265 C 
BRANCH  35  36
ATOM     36  C   UNL     1      29.037   9.701  49.340  1.00  0.00    -0.008 A 
ATOM     37  C   UNL     1      29.061  11.075  49.042  1.00  0.00     0.007 A 
ATOM     38  C   UNL     1      30.203   8.948  49.149  1.00  0.00     0.046 A 
ATOM     39  C   UNL     1      30.224  11.680  48.562  1.00  0.00     0.003 A 
ATOM     40  C   UNL     1      31.357   9.563  48.671  1.00  0.00     0.123 A 
ATOM     41  C   UNL     1      31.377  10.921  48.376  1.00  0.00     0.039 A 
ATOM     42  F   UNL     1      32.465   8.832  48.493  1.00  0.00    -0.207 F 
ENDBRANCH  35  36
ENDBRANCH  34  35
ENDBRANCH  32  34
ENDBRANCH  25  27
ENDBRANCH   8  25
TORSDOF 11
ENDMDL
MODEL 5
REMARK VINA RESULT:    -8.483      2.696      3.408
REMARK INTER + INTRA:         -16.680
REMARK INTER:                 -13.453
REMARK INTRA:                  -3.227
REMARK UNBOUND:                -2.742
REMARK SMILES CS(=O)(=O)CCNCc1ccc(-c2ccc3ncnc(Nc4ccc(OCc5cccc(F)c5)c(Cl)c4)c3c2)o1
REMARK SMILES IDX 13 1 14 2 15 3 16 4 17 5 18 6 19 7 20 8 38 9 39 10 12 11
REMARK SMILES IDX 9 12 10 13 40 14 11 15 8 16 7 17 6 19 5 20 2 21 3 22 4 23
REMARK SMILES IDX 1 24 21 25 22 27 23 28 37 29 24 30 35 31 25 32 36 33 26 34
REMARK SMILES IDX 27 35 28 36 29 37 34 38 30 39 32 40 31 41 33 42
REMARK H PARENT 7 18 21 26
ROOT
ATOM      1  C   UNL     1      20.916  -0.795  53.465  1.00  0.00     0.018 A 
ATOM      2  C   UNL     1      21.263  -1.589  54.560  1.00  0.00     0.014 A 
ATOM      3  C   UNL     1      22.578  -1.614  55.038  1.00  0.00     0.030 A 
ATOM      4  C   UNL     1      23.587  -0.866  54.451  1.00  0.00     0.076 A 
ATOM      5  N   UNL     1      24.816  -0.932  54.968  1.00  0.00    -0.236 NA
ATOM      6  C   UNL     1      25.756  -0.187  54.379  1.00  0.00     0.224 A 
ATOM      7  N   UNL     1      25.584   0.605  53.317  1.00  0.00    -0.219 NA
ATOM      8  C   UNL     1      24.347   0.652  52.790  1.00  0.00     0.141 A 
ATOM      9  C   UNL     1      23.271  -0.074  53.340  1.00  0.00     0.044 A 
ATOM     10  C   UNL     1      21.931  -0.041  52.864  1.00  0.00     0.026 A 
ENDROOT
BRANCH   1  11
ATOM     11  C   UNL     1      19.543  -0.742  52.964  1.00  0.00     0.134 A 
ATOM     12  C   UNL     1      18.030  -0.144  51.477  1.00  0.00     0.118 A 
ATOM     13  C   UNL     1      17.353  -0.828  52.463  1.00  0.00     0.047 A 
ATOM     14  O   UNL     1      19.358  -0.084  51.780  1.00  0.00    -0.460 OA
ATOM     15  C   UNL     1      18.326  -1.215  53.417  1.00  0.00     0.051 A 
BRANCH  12  16
ATOM     16  C   UNL     1      17.610   0.519  50.213  1.00  0.00     0.157 C 
BRANCH  16  17
ATOM     17  N   UNL     1      18.791   1.025  49.501  1.00  0.00    -0.309 NA
ATOM     18  H   UNL     1      18.822   0.534  48.603  1.00  0.00     0.123 HD
BRANCH  17  19
ATOM     19  C   UNL     1      18.713   2.469  49.245  1.00  0.00     0.097 C 
BRANCH  19  20
ATOM     20  C   UNL     1      19.755   2.950  48.245  1.00  0.00     0.152 C 
BRANCH  20  21
ATOM     21  S   UNL     1      21.401   2.929  48.930  1.00  0.00     0.148 S 
ATOM     22  O   UNL     1      21.851   4.300  49.084  1.00  0.00    -0.229 OA
ATOM     23  O   UNL     1      21.383   2.030  50.068  1.00  0.00    -0.229 OA
ATOM     24  C   UNL     1      22.396   2.162  47.671  1.00  0.00     0.158 C 
ENDBRANCH  20  21
ENDBRANCH  19  20
ENDBRANCH  17  19
ENDBRANCH  16  17
ENDBRANCH  12  16
ENDBRANCH   1  11
BRANCH   8  25
ATOM     25  N   UNL     1      24.119   1.437  51.625  1.00  0.00    -0.340 N 
ATOM     26  H   UNL     1      24.464   0.924  50.821  1.00  0.00     0.168 HD
BRANCH  25  27
ATOM     27  C   UNL     1      24.280   2.831  51.467  1.00  0.00     0.041 A 
ATOM     28  C   UNL     1      23.553   3.764  52.212  1.00  0.00     0.030 A 
ATOM     29  C   UNL     1      25.098   3.313  50.438  1.00  0.00     0.050 A 
ATOM     30  C   UNL     1      23.674   5.142  51.981  1.00  0.00     0.050 A 
ATOM     31  C   UNL     1      25.225   4.687  50.204  1.00  0.00     0.085 A 
ATOM     32  C   UNL     1      24.515   5.619  50.975  1.00  0.00     0.138 A 
ATOM     33  Cl  UNL     1      26.279   5.192  48.927  1.00  0.00    -0.080 Cl
BRANCH  32  34
ATOM     34  O   UNL     1      24.698   6.941  50.671  1.00  0.00    -0.487 OA
BRANCH  34  35
ATOM     35  C   UNL     1      23.631   7.631  50.027  1.00  0.00     0.265 C 
BRANCH  35  36
ATOM     36  C   UNL     1      23.985   7.803  48.569  1.00  0.00    -0.008 A 
ATOM     37  C   UNL     1      23.193   7.209  47.572  1.00  0.00     0.007 A 
ATOM     38  C   UNL     1      25.110   8.546  48.187  1.00  0.00     0.046 A 
ATOM     39  C   UNL     1      23.520   7.353  46.221  1.00  0.00     0.003 A 
ATOM     40  C   UNL     1      25.425   8.684  46.838  1.00  0.00     0.123 A 
ATOM     41  C   UNL     1      24.642   8.093  45.853  1.00  0.00     0.039 A 
ATOM     42  F   UNL     1      26.503   9.396  46.484  1.00  0.00    -0.207 F 
ENDBRANCH  35  36
ENDBRANCH  34  35
ENDBRANCH  32  34
ENDBRANCH  25  27
ENDBRANCH   8  25
TORSDOF 11
ENDMDL
MODEL 6
REMARK VINA RESULT:    -8.464      3.013      6.678
REMARK INTER + INTRA:         -16.649
REMARK INTER:                 -14.366
REMARK INTRA:                  -2.283
REMARK UNBOUND:                -2.742
REMARK SMILES CS(=O)(=O)CCNCc1ccc(-c2ccc3ncnc(Nc4ccc(OCc5cccc(F)c5)c(Cl)c4)c3c2)o1
REMARK SMILES IDX 13 1 14 2 15 3 16 4 17 5 18 6 19 7 20 8 38 9 39 10 12 11
REMARK SMILES IDX 9 12 10 13 40 14 11 15 8 16 7 17 6 19 5 20 2 21 3 22 4 23
REMARK SMILES IDX 1 24 21 25 22 27 23 28 37 29 24 30 35 31 25 32 36 33 26 34
REMARK SMILES IDX 27 35 28 36 29 37 34 38 30 39 32 40 31 41 33 42
REMARK H PARENT 7 18 21 26
ROOT
ATOM      1  C   UNL     1      20.286  -0.351  52.792  1.00  0.00     0.018 A 
ATOM      2  C   UNL     1      19.286  -0.942  53.566  1.00  0.00     0.014 A 
ATOM      3  C   UNL     1      17.949  -0.909  53.154  1.00  0.00     0.030 A 
ATOM      4  C   UNL     1      17.558  -0.290  51.977  1.00  0.00     0.076 A 
ATOM      5  N   UNL     1      16.265  -0.309  51.644  1.00  0.00    -0.236 NA
ATOM      6  C   UNL     1      15.932   0.289  50.496  1.00  0.00     0.224 A 
ATOM      7  N   UNL     1      16.768   0.912  49.660  1.00  0.00    -0.219 NA
ATOM      8  C   UNL     1      18.067   0.942  50.012  1.00  0.00     0.141 A 
ATOM      9  C   UNL     1      18.538   0.326  51.189  1.00  0.00     0.044 A 
ATOM     10  C   UNL     1      19.898   0.281  51.604  1.00  0.00     0.026 A 
ENDROOT
BRANCH   1  11
ATOM     11  C   UNL     1      21.690  -0.391  53.196  1.00  0.00     0.134 A 
ATOM     12  C   UNL     1      23.787   0.273  53.041  1.00  0.00     0.118 A 
ATOM     13  C   UNL     1      23.757  -0.683  54.032  1.00  0.00     0.047 A 
ATOM     14  O   UNL     1      22.536   0.450  52.527  1.00  0.00    -0.460 OA
ATOM     15  C   UNL     1      22.410  -1.108  54.134  1.00  0.00     0.051 A 
BRANCH  12  16
ATOM     16  C   UNL     1      24.868   1.102  52.445  1.00  0.00     0.157 C 
BRANCH  16  17
ATOM     17  N   UNL     1      25.369   2.058  53.441  1.00  0.00    -0.309 NA
ATOM     18  H   UNL     1      25.132   1.674  54.359  1.00  0.00     0.123 HD
BRANCH  17  19
ATOM     19  C   UNL     1      26.825   2.234  53.365  1.00  0.00     0.097 C 
BRANCH  19  20
ATOM     20  C   UNL     1      27.519   1.109  52.609  1.00  0.00     0.152 C 
BRANCH  20  21
ATOM     21  S   UNL     1      27.823  -0.307  53.649  1.00  0.00     0.148 S 
ATOM     22  O   UNL     1      27.307  -0.022  54.975  1.00  0.00    -0.229 OA
ATOM     23  O   UNL     1      27.375  -1.481  52.923  1.00  0.00    -0.229 OA
ATOM     24  C   UNL     1      29.596  -0.404  53.759  1.00  0.00     0.158 C 
ENDBRANCH  20  21
ENDBRANCH  19  20
ENDBRANCH  17  19
ENDBRANCH  16  17
ENDBRANCH  12  16
ENDBRANCH   1  11
BRANCH   8  25
ATOM     25  N   UNL     1      18.993   1.638  49.186  1.00  0.00    -0.340 N 
ATOM     26  H   UNL     1      19.463   0.962  48.593  1.00  0.00     0.168 HD
BRANCH  25  27
ATOM     27  C   UNL     1      19.845   2.708  49.538  1.00  0.00     0.041 A 
ATOM     28  C   UNL     1      19.704   3.423  50.731  1.00  0.00     0.030 A 
ATOM     29  C   UNL     1      20.787   3.167  48.610  1.00  0.00     0.050 A 
ATOM     30  C   UNL     1      20.513   4.531  51.022  1.00  0.00     0.050 A 
ATOM     31  C   UNL     1      21.599   4.271  48.896  1.00  0.00     0.085 A 
ATOM     32  C   UNL     1      21.472   4.966  50.107  1.00  0.00     0.138 A 
ATOM     33  Cl  UNL     1      22.754   4.751  47.700  1.00  0.00    -0.080 Cl
BRANCH  32  34
ATOM     34  O   UNL     1      22.305   6.035  50.298  1.00  0.00    -0.487 OA
BRANCH  34  35
ATOM     35  C   UNL     1      23.385   5.883  51.215  1.00  0.00     0.265 C 
BRANCH  35  36
ATOM     36  C   UNL     1      24.621   5.499  50.436  1.00  0.00    -0.008 A 
ATOM     37  C   UNL     1      25.307   6.459  49.673  1.00  0.00     0.007 A 
ATOM     38  C   UNL     1      25.098   4.181  50.452  1.00  0.00     0.046 A 
ATOM     39  C   UNL     1      26.444   6.109  48.941  1.00  0.00     0.003 A 
ATOM     40  C   UNL     1      26.233   3.844  49.719  1.00  0.00     0.123 A 
ATOM     41  C   UNL     1      26.908   4.796  48.964  1.00  0.00     0.039 A 
ATOM     42  F   UNL     1      26.680   2.582  49.742  1.00  0.00    -0.207 F 
ENDBRANCH  35  36
ENDBRANCH  34  35
ENDBRANCH  32  34
ENDBRANCH  25  27
ENDBRANCH   8  25
TORSDOF 11
ENDMDL
MODEL 7
REMARK VINA RESULT:    -8.438      3.878      9.100
REMARK INTER + INTRA:         -16.607
REMARK INTER:                 -14.536
REMARK INTRA:                  -2.070
REMARK UNBOUND:                -2.742
REMARK SMILES CS(=O)(=O)CCNCc1ccc(-c2ccc3ncnc(Nc4ccc(OCc5cccc(F)c5)c(Cl)c4)c3c2)o1
REMARK SMILES IDX 13 1 14 2 15 3 16 4 17 5 18 6 19 7 20 8 38 9 39 10 12 11
REMARK SMILES IDX 9 12 10 13 40 14 11 15 8 16 7 17 6 19 5 20 2 21 3 22 4 23
REMARK SMILES IDX 1 24 21 25 22 27 23 28 37 29 24 30 35 31 25 32 36 33 26 34
REMARK SMILES IDX 27 35 28 36 29 37 34 38 30 39 32 40 31 41 33 42
REMARK H PARENT 7 18 21 26
ROOT
ATOM      1  C   UNL     1      23.456   5.522  48.642  1.00  0.00     0.018 A 
ATOM      2  C   UNL     1      22.709   5.503  47.463  1.00  0.00     0.014 A 
ATOM      3  C   UNL     1      21.392   5.027  47.457  1.00  0.00     0.030 A 
ATOM      4  C   UNL     1      20.777   4.553  48.605  1.00  0.00     0.076 A 
ATOM      5  N   UNL     1      19.516   4.125  48.525  1.00  0.00    -0.236 NA
ATOM      6  C   UNL     1      18.957   3.686  49.657  1.00  0.00     0.224 A 
ATOM      7  N   UNL     1      19.546   3.624  50.854  1.00  0.00    -0.219 NA
ATOM      8  C   UNL     1      20.825   4.039  50.923  1.00  0.00     0.141 A 
ATOM      9  C   UNL     1      21.509   4.543  49.799  1.00  0.00     0.044 A 
ATOM     10  C   UNL     1      22.843   5.039  49.805  1.00  0.00     0.026 A 
ENDROOT
BRANCH   1  11
ATOM     11  C   UNL     1      24.825   6.032  48.671  1.00  0.00     0.134 A 
ATOM     12  C   UNL     1      27.013   5.755  48.670  1.00  0.00     0.118 A 
ATOM     13  C   UNL     1      26.795   7.114  48.730  1.00  0.00     0.047 A 
ATOM     14  O   UNL     1      25.820   5.094  48.640  1.00  0.00    -0.460 OA
ATOM     15  C   UNL     1      25.390   7.292  48.728  1.00  0.00     0.051 A 
BRANCH  12  16
ATOM     16  C   UNL     1      28.236   4.910  48.644  1.00  0.00     0.157 C 
BRANCH  16  17
ATOM     17  N   UNL     1      29.420   5.739  48.906  1.00  0.00    -0.309 NA
ATOM     18  H   UNL     1      29.730   5.515  49.855  1.00  0.00     0.123 HD
BRANCH  17  19
ATOM     19  C   UNL     1      30.518   5.457  47.972  1.00  0.00     0.097 C 
BRANCH  19  20
ATOM     20  C   UNL     1      31.159   6.719  47.412  1.00  0.00     0.152 C 
BRANCH  20  21
ATOM     21  S   UNL     1      31.177   8.046  48.604  1.00  0.00     0.148 S 
ATOM     22  O   UNL     1      29.862   8.659  48.627  1.00  0.00    -0.229 OA
ATOM     23  O   UNL     1      31.764   7.523  49.824  1.00  0.00    -0.229 OA
ATOM     24  C   UNL     1      32.324   9.229  47.935  1.00  0.00     0.158 C 
ENDBRANCH  20  21
ENDBRANCH  19  20
ENDBRANCH  17  19
ENDBRANCH  16  17
ENDBRANCH  12  16
ENDBRANCH   1  11
BRANCH   8  25
ATOM     25  N   UNL     1      21.518   3.945  52.162  1.00  0.00    -0.340 N 
ATOM     26  H   UNL     1      21.840   4.873  52.420  1.00  0.00     0.168 HD
BRANCH  25  27
ATOM     27  C   UNL     1      22.418   2.943  52.585  1.00  0.00     0.041 A 
ATOM     28  C   UNL     1      23.792   3.168  52.714  1.00  0.00     0.030 A 
ATOM     29  C   UNL     1      21.953   1.635  52.760  1.00  0.00     0.050 A 
ATOM     30  C   UNL     1      24.676   2.135  53.059  1.00  0.00     0.050 A 
ATOM     31  C   UNL     1      22.830   0.600  53.107  1.00  0.00     0.085 A 
ATOM     32  C   UNL     1      24.202   0.839  53.263  1.00  0.00     0.138 A 
ATOM     33  Cl  UNL     1      22.161  -0.982  53.328  1.00  0.00    -0.080 Cl
BRANCH  32  34
ATOM     34  O   UNL     1      24.983  -0.234  53.600  1.00  0.00    -0.487 OA
BRANCH  34  35
ATOM     35  C   UNL     1      25.807  -0.803  52.585  1.00  0.00     0.265 C 
BRANCH  35  36
ATOM     36  C   UNL     1      27.245  -0.726  53.040  1.00  0.00    -0.008 A 
ATOM     37  C   UNL     1      28.093  -1.838  52.904  1.00  0.00     0.007 A 
ATOM     38  C   UNL     1      27.755   0.447  53.613  1.00  0.00     0.046 A 
ATOM     39  C   UNL     1      29.421  -1.779  53.333  1.00  0.00     0.003 A 
ATOM     40  C   UNL     1      29.080   0.495  54.035  1.00  0.00     0.123 A 
ATOM     41  C   UNL     1      29.917  -0.608  53.901  1.00  0.00     0.039 A 
ATOM     42  F   UNL     1      29.556   1.621  54.581  1.00  0.00    -0.207 F 
ENDBRANCH  35  36
ENDBRANCH  34  35
ENDBRANCH  32  34
ENDBRANCH  25  27
ENDBRANCH   8  25
TORSDOF 11
ENDMDL
MODEL 8
REMARK VINA RESULT:    -8.401      4.776     10.424
REMARK INTER + INTRA:         -16.545
REMARK INTER:                 -14.360
REMARK INTRA:                  -2.185
REMARK UNBOUND:                -2.742
REMARK SMILES CS(=O)(=O)CCNCc1ccc(-c2ccc3ncnc(Nc4ccc(OCc5cccc(F)c5)c(Cl)c4)c3c2)o1
REMARK SMILES IDX 13 1 14 2 15 3 16 4 17 5 18 6 19 7 20 8 38 9 39 10 12 11
REMARK SMILES IDX 9 12 10 13 40 14 11 15 8 16 7 17 6 19 5 20 2 21 3 22 4 23
REMARK SMILES IDX 1 24 21 25 22 27 23 28 37 29 24 30 35 31 25 32 36 33 26 34
REMARK SMILES IDX 27 35 28 36 29 37 34 38 30 39 32 40 31 41 33 42
REMARK H PARENT 7 18 21 26
ROOT
ATOM      1  C   UNL     1      24.874   1.803  51.814  1.00  0.00     0.018 A 
ATOM      2  C   UNL     1      25.612   1.158  52.809  1.00  0.00     0.014 A 
ATOM      3  C   UNL     1      25.008   0.219  53.652  1.00  0.00     0.030 A 
ATOM      4  C   UNL     1      23.665  -0.108  53.546  1.00  0.00     0.076 A 
ATOM      5  N   UNL     1      23.161  -1.022  54.378  1.00  0.00    -0.236 NA
ATOM      6  C   UNL     1      21.865  -1.315  54.234  1.00  0.00     0.224 A 
ATOM      7  N   UNL     1      21.028  -0.773  53.347  1.00  0.00    -0.219 NA
ATOM      8  C   UNL     1      21.538   0.161  52.524  1.00  0.00     0.141 A 
ATOM      9  C   UNL     1      22.896   0.536  52.568  1.00  0.00     0.044 A 
ATOM     10  C   UNL     1      23.515   1.482  51.704  1.00  0.00     0.026 A 
ENDROOT
BRANCH   1  11
ATOM     11  C   UNL     1      25.491   2.774  50.912  1.00  0.00     0.134 A 
ATOM     12  C   UNL     1      25.670   4.791  50.040  1.00  0.00     0.118 A 
ATOM     13  C   UNL     1      26.636   4.020  49.432  1.00  0.00     0.047 A 
ATOM     14  O   UNL     1      24.969   4.037  50.936  1.00  0.00    -0.460 OA
ATOM     15  C   UNL     1      26.523   2.725  49.994  1.00  0.00     0.051 A 
BRANCH  12  16
ATOM     16  C   UNL     1      25.257   6.214  49.909  1.00  0.00     0.157 C 
BRANCH  16  17
ATOM     17  N   UNL     1      24.650   6.674  51.165  1.00  0.00    -0.309 NA
ATOM     18  H   UNL     1      25.267   7.401  51.537  1.00  0.00     0.123 HD
BRANCH  17  19
ATOM     19  C   UNL     1      23.314   7.248  50.963  1.00  0.00     0.097 C 
BRANCH  19  20
ATOM     20  C   UNL     1      22.521   6.537  49.875  1.00  0.00     0.152 C 
BRANCH  20  21
ATOM     21  S   UNL     1      21.481   5.249  50.538  1.00  0.00     0.148 S 
ATOM     22  O   UNL     1      21.946   4.928  51.875  1.00  0.00    -0.229 OA
ATOM     23  O   UNL     1      20.104   5.648  50.316  1.00  0.00    -0.229 OA
ATOM     24  C   UNL     1      21.795   3.843  49.495  1.00  0.00     0.158 C 
ENDBRANCH  20  21
ENDBRANCH  19  20
ENDBRANCH  17  19
ENDBRANCH  16  17
ENDBRANCH  12  16
ENDBRANCH   1  11
BRANCH   8  25
ATOM     25  N   UNL     1      20.679   0.812  51.594  1.00  0.00    -0.340 N 
ATOM     26  H   UNL     1      21.148   1.646  51.255  1.00  0.00     0.168 HD
BRANCH  25  27
ATOM     27  C   UNL     1      19.281   0.993  51.677  1.00  0.00     0.041 A 
ATOM     28  C   UNL     1      18.378  -0.074  51.632  1.00  0.00     0.030 A 
ATOM     29  C   UNL     1      18.758   2.291  51.672  1.00  0.00     0.050 A 
ATOM     30  C   UNL     1      16.991   0.138  51.636  1.00  0.00     0.050 A 
ATOM     31  C   UNL     1      17.375   2.509  51.679  1.00  0.00     0.085 A 
ATOM     32  C   UNL     1      16.475   1.434  51.663  1.00  0.00     0.138 A 
ATOM     33  Cl  UNL     1      16.818   4.148  51.699  1.00  0.00    -0.080 Cl
BRANCH  32  34
ATOM     34  O   UNL     1      15.141   1.743  51.667  1.00  0.00    -0.487 OA
BRANCH  34  35
ATOM     35  C   UNL     1      14.250   0.839  52.315  1.00  0.00     0.265 C 
BRANCH  35  36
ATOM     36  C   UNL     1      13.380   1.627  53.266  1.00  0.00    -0.008 A 
ATOM     37  C   UNL     1      12.669   0.972  54.286  1.00  0.00     0.007 A 
ATOM     38  C   UNL     1      13.258   3.017  53.142  1.00  0.00     0.046 A 
ATOM     39  C   UNL     1      11.853   1.692  55.162  1.00  0.00     0.003 A 
ATOM     40  C   UNL     1      12.442   3.724  54.021  1.00  0.00     0.123 A 
ATOM     41  C   UNL     1      11.739   3.074  55.029  1.00  0.00     0.039 A 
ATOM     42  F   UNL     1      12.333   5.052  53.893  1.00  0.00    -0.207 F 
ENDBRANCH  35  36
ENDBRANCH  34  35
ENDBRANCH  32  34
ENDBRANCH  25  27
ENDBRANCH   8  25
TORSDOF 11
ENDMDL
MODEL 9
REMARK VINA RESULT:    -8.278      1.542      2.019
REMARK INTER + INTRA:         -16.343
REMARK INTER:                 -13.842
REMARK INTRA:                  -2.501
REMARK UNBOUND:                -2.742
REMARK SMILES CS(=O)(=O)CCNCc1ccc(-c2ccc3ncnc(Nc4ccc(OCc5cccc(F)c5)c(Cl)c4)c3c2)o1
REMARK SMILES IDX 13 1 14 2 15 3 16 4 17 5 18 6 19 7 20 8 38 9 39 10 12 11
REMARK SMILES IDX 9 12 10 13 40 14 11 15 8 16 7 17 6 19 5 20 2 21 3 22 4 23
REMARK SMILES IDX 1 24 21 25 22 27 23 28 37 29 24 30 35 31 25 32 36 33 26 34
REMARK SMILES IDX 27 35 28 36 29 37 34 38 30 39 32 40 31 41 33 42
REMARK H PARENT 7 18 21 26
ROOT
ATOM      1  C   UNL     1      21.121  -0.588  53.486  1.00  0.00     0.018 A 
ATOM      2  C   UNL     1      21.616  -1.325  54.564  1.00  0.00     0.014 A 
ATOM      3  C   UNL     1      22.974  -1.279  54.900  1.00  0.00     0.030 A 
ATOM      4  C   UNL     1      23.882  -0.514  54.183  1.00  0.00     0.076 A 
ATOM      5  N   UNL     1      25.160  -0.511  54.569  1.00  0.00    -0.236 NA
ATOM      6  C   UNL     1      26.000   0.248  53.858  1.00  0.00     0.224 A 
ATOM      7  N   UNL     1      25.683   0.991  52.794  1.00  0.00    -0.219 NA
ATOM      8  C   UNL     1      24.396   0.968  52.400  1.00  0.00     0.141 A 
ATOM      9  C   UNL     1      23.417   0.222  53.086  1.00  0.00     0.044 A 
ATOM     10  C   UNL     1      22.033   0.183  52.755  1.00  0.00     0.026 A 
ENDROOT
BRANCH   1  11
ATOM     11  C   UNL     1      19.703  -0.610  53.133  1.00  0.00     0.134 A 
ATOM     12  C   UNL     1      17.960   0.137  52.008  1.00  0.00     0.118 A 
ATOM     13  C   UNL     1      17.496  -0.888  52.803  1.00  0.00     0.047 A 
ATOM     14  O   UNL     1      19.297   0.313  52.208  1.00  0.00    -0.460 OA
ATOM     15  C   UNL     1      18.617  -1.369  53.524  1.00  0.00     0.051 A 
BRANCH  12  16
ATOM     16  C   UNL     1      17.313   1.050  51.028  1.00  0.00     0.157 C 
BRANCH  16  17
ATOM     17  N   UNL     1      17.817   2.417  51.214  1.00  0.00    -0.309 NA
ATOM     18  H   UNL     1      18.714   2.334  51.700  1.00  0.00     0.123 HD
BRANCH  17  19
ATOM     19  C   UNL     1      18.034   3.111  49.938  1.00  0.00     0.097 C 
BRANCH  19  20
ATOM     20  C   UNL     1      19.015   2.385  49.028  1.00  0.00     0.152 C 
BRANCH  20  21
ATOM     21  S   UNL     1      20.705   2.848  49.362  1.00  0.00     0.148 S 
ATOM     22  O   UNL     1      20.968   4.121  48.718  1.00  0.00    -0.229 OA
ATOM     23  O   UNL     1      20.923   2.687  50.788  1.00  0.00    -0.229 OA
ATOM     24  C   UNL     1      21.676   1.605  48.540  1.00  0.00     0.158 C 
ENDBRANCH  20  21
ENDBRANCH  19  20
ENDBRANCH  17  19
ENDBRANCH  16  17
ENDBRANCH  12  16
ENDBRANCH   1  11
BRANCH   8  25
ATOM     25  N   UNL     1      24.012   1.699  51.241  1.00  0.00    -0.340 N 
ATOM     26  H   UNL     1      23.804   1.037  50.501  1.00  0.00     0.168 HD
BRANCH  25  27
ATOM     27  C   UNL     1      24.574   2.892  50.735  1.00  0.00     0.041 A 
ATOM     28  C   UNL     1      25.717   2.905  49.930  1.00  0.00     0.030 A 
ATOM     29  C   UNL     1      24.057   4.123  51.153  1.00  0.00     0.050 A 
ATOM     30  C   UNL     1      26.301   4.107  49.505  1.00  0.00     0.050 A 
ATOM     31  C   UNL     1      24.633   5.326  50.730  1.00  0.00     0.085 A 
ATOM     32  C   UNL     1      25.763   5.332  49.899  1.00  0.00     0.138 A 
ATOM     33  Cl  UNL     1      23.910   6.801  51.276  1.00  0.00    -0.080 Cl
BRANCH  32  34
ATOM     34  O   UNL     1      26.260   6.556  49.540  1.00  0.00    -0.487 OA
BRANCH  34  35
ATOM     35  C   UNL     1      25.991   7.024  48.221  1.00  0.00     0.265 C 
BRANCH  35  36
ATOM     36  C   UNL     1      27.307   7.329  47.545  1.00  0.00    -0.008 A 
ATOM     37  C   UNL     1      27.368   8.271  46.504  1.00  0.00     0.007 A 
ATOM     38  C   UNL     1      28.483   6.676  47.936  1.00  0.00     0.046 A 
ATOM     39  C   UNL     1      28.579   8.552  45.866  1.00  0.00     0.003 A 
ATOM     40  C   UNL     1      29.684   6.964  47.294  1.00  0.00     0.123 A 
ATOM     41  C   UNL     1      29.742   7.895  46.263  1.00  0.00     0.039 A 
ATOM     42  F   UNL     1      30.801   6.333  47.675  1.00  0.00    -0.207 F 
ENDBRANCH  35  36
ENDBRANCH  34  35
ENDBRANCH  32  34
ENDBRANCH  25  27
ENDBRANCH   8  25
TORSDOF 11
ENDMDL
