MODEL 1
REMARK VINA RESULT:    -9.936      0.000      0.000
REMARK INTER + INTRA:         -14.230
REMARK INTER:                 -13.712
REMARK INTRA:                  -0.518
REMARK UNBOUND:                -0.518
REMARK SMILES COc1cc2c(c(O)c1-c1c(OC)cc(O)c3c1C(=O)C1=C(C3=O)[C@H](O)[C@@H](O)[C@@](C)(O)[C@@H]1O)C(=O)c1cc(O)c(C)cc1C2=O
REMARK SMILES IDX 3 1 4 2 5 3 6 4 7 5 9 6 34 7 35 8 36 9 37 10 38 11 40 12
REMARK SMILES IDX 41 13 42 14 43 15 44 16 45 17 2 18 1 19 10 20 11 21 18 22
REMARK SMILES IDX 14 23 17 24 19 25 15 26 23 27 20 28 21 29 22 30 24 31 32 32
REMARK SMILES IDX 25 33 29 34 27 35 30 36 12 37 13 38 16 39 33 41 26 43 31 45
REMARK SMILES IDX 28 47 8 49 39 51
REMARK H PARENT 16 40 33 42 26 44 31 46 28 48 8 50 39 52
ROOT
ATOM      1  C   UNL     1      23.692   6.059  50.618  1.00  0.00     0.131 A 
ATOM      2  C   UNL     1      24.575   7.134  50.484  1.00  0.00     0.060 A 
ATOM      3  C   UNL     1      25.813   6.962  49.849  1.00  0.00     0.041 A 
ATOM      4  C   UNL     1      26.192   5.712  49.364  1.00  0.00     0.076 A 
ATOM      5  C   UNL     1      25.319   4.624  49.512  1.00  0.00     0.139 A 
ATOM      6  C   UNL     1      24.058   4.785  50.124  1.00  0.00     0.071 A 
ATOM      7  C   UNL     1      27.491   5.553  48.681  1.00  0.00     0.198 C 
ATOM      8  O   UNL     1      27.840   4.442  48.292  1.00  0.00    -0.288 OA
ATOM      9  C   UNL     1      28.346   6.733  48.454  1.00  0.00     0.038 A 
ATOM     10  C   UNL     1      29.535   6.603  47.733  1.00  0.00     0.059 A 
ATOM     11  C   UNL     1      30.333   7.722  47.497  1.00  0.00     0.119 A 
ATOM     12  C   UNL     1      29.968   8.987  47.976  1.00  0.00    -0.008 A 
ATOM     13  C   UNL     1      30.799  10.211  47.725  1.00  0.00     0.048 C 
ATOM     14  C   UNL     1      28.774   9.101  48.705  1.00  0.00     0.020 A 
ATOM     15  C   UNL     1      27.965   7.979  48.939  1.00  0.00     0.034 A 
ATOM     16  C   UNL     1      26.701   8.132  49.684  1.00  0.00     0.194 C 
ATOM     17  O   UNL     1      26.386   9.221  50.147  1.00  0.00    -0.289 OA
ENDROOT
BRANCH   1  18
ATOM     18  O   UNL     1      22.455   6.140  51.211  1.00  0.00    -0.496 OA
ATOM     19  C   UNL     1      21.643   7.263  50.893  1.00  0.00     0.278 C 
ENDBRANCH   1  18
BRANCH   6  20
ATOM     20  C   UNL     1      23.112   3.650  50.203  1.00  0.00     0.043 A 
ATOM     21  C   UNL     1      21.992   3.653  49.327  1.00  0.00     0.131 A 
ATOM     22  C   UNL     1      23.270   2.581  51.124  1.00  0.00     0.049 A 
ATOM     23  C   UNL     1      21.054   2.624  49.383  1.00  0.00     0.094 A 
ATOM     24  C   UNL     1      22.304   1.568  51.179  1.00  0.00     0.076 A 
ATOM     25  C   UNL     1      24.441   2.500  52.045  1.00  0.00     0.193 C 
ATOM     26  C   UNL     1      21.208   1.597  50.305  1.00  0.00     0.131 A 
ATOM     27  C   UNL     1      22.409   0.474  52.160  1.00  0.00     0.196 C 
ATOM     28  O   UNL     1      25.305   3.368  52.114  1.00  0.00    -0.289 OA
ATOM     29  C   UNL     1      24.558   1.325  52.949  1.00  0.00     0.041 C 
ATOM     30  C   UNL     1      23.588   0.403  53.041  1.00  0.00     0.041 C 
ATOM     31  O   UNL     1      21.521  -0.372  52.241  1.00  0.00    -0.289 OA
ATOM     32  C   UNL     1      25.840   1.250  53.746  1.00  0.00     0.183 C 
ATOM     33  C   UNL     1      23.656  -0.761  53.993  1.00  0.00     0.180 C 
ATOM     34  C   UNL     1      26.079  -0.135  54.412  1.00  0.00     0.121 C 
ATOM     35  C   UNL     1      24.774  -0.635  55.050  1.00  0.00     0.182 C 
ATOM     36  C   UNL     1      27.219  -0.075  55.437  1.00  0.00     0.048 C 
BRANCH  21  37
ATOM     37  O   UNL     1      21.903   4.719  48.462  1.00  0.00    -0.496 OA
ATOM     38  C   UNL     1      22.069   4.460  47.073  1.00  0.00     0.278 C 
ENDBRANCH  21  37
BRANCH  26  39
ATOM     39  O   UNL     1      20.223   0.642  50.289  1.00  0.00    -0.507 OA
ATOM     40  H   UNL     1      19.563   0.880  49.603  1.00  0.00     0.293 HD
ENDBRANCH  26  39
BRANCH  32  41
ATOM     41  O   UNL     1      25.780   2.275  54.737  1.00  0.00    -0.385 OA
ATOM     42  H   UNL     1      25.068   2.006  55.355  1.00  0.00     0.211 HD
ENDBRANCH  32  41
BRANCH  33  43
ATOM     43  O   UNL     1      22.428  -0.912  54.717  1.00  0.00    -0.385 OA
ATOM     44  H   UNL     1      21.797  -0.274  54.320  1.00  0.00     0.211 HD
ENDBRANCH  33  43
BRANCH  34  45
ATOM     45  O   UNL     1      26.479  -1.086  53.403  1.00  0.00    -0.384 OA
ATOM     46  H   UNL     1      26.823  -0.543  52.663  1.00  0.00     0.211 HD
ENDBRANCH  34  45
BRANCH  35  47
ATOM     47  O   UNL     1      24.985  -1.936  55.636  1.00  0.00    -0.387 OA
ATOM     48  H   UNL     1      24.605  -2.567  54.993  1.00  0.00     0.211 HD
ENDBRANCH  35  47
ENDBRANCH   6  20
BRANCH   5  49
ATOM     49  O   UNL     1      25.649   3.364  49.063  1.00  0.00    -0.506 OA
ATOM     50  H   UNL     1      25.380   2.709  49.747  1.00  0.00     0.293 HD
ENDBRANCH   5  49
BRANCH  11  51
ATOM     51  O   UNL     1      31.467   7.504  46.772  1.00  0.00    -0.508 OA
ATOM     52  H   UNL     1      31.495   6.583  46.462  1.00  0.00     0.293 HD
ENDBRANCH  11  51
TORSDOF 10
ENDMDL
MODEL 2
REMARK VINA RESULT:    -8.866      3.892      4.660
REMARK INTER + INTRA:         -12.753
REMARK INTER:                 -12.166
REMARK INTRA:                  -0.587
REMARK UNBOUND:                -0.518
REMARK SMILES COc1cc2c(c(O)c1-c1c(OC)cc(O)c3c1C(=O)C1=C(C3=O)[C@H](O)[C@@H](O)[C@@](C)(O)[C@@H]1O)C(=O)c1cc(O)c(C)cc1C2=O
REMARK SMILES IDX 3 1 4 2 5 3 6 4 7 5 9 6 34 7 35 8 36 9 37 10 38 11 40 12
REMARK SMILES IDX 41 13 42 14 43 15 44 16 45 17 2 18 1 19 10 20 11 21 18 22
REMARK SMILES IDX 14 23 17 24 19 25 15 26 23 27 20 28 21 29 22 30 24 31 32 32
REMARK SMILES IDX 25 33 29 34 27 35 30 36 12 37 13 38 16 39 33 41 26 43 31 45
REMARK SMILES IDX 28 47 8 49 39 51
REMARK H PARENT 16 40 33 42 26 44 31 46 28 48 8 50 39 52
ROOT
ATOM      1  C   UNL     1      21.979   4.572  51.342  1.00  0.00     0.131 A 
ATOM      2  C   UNL     1      22.115   5.723  50.561  1.00  0.00     0.060 A 
ATOM      3  C   UNL     1      22.138   5.633  49.162  1.00  0.00     0.041 A 
ATOM      4  C   UNL     1      22.052   4.394  48.531  1.00  0.00     0.076 A 
ATOM      5  C   UNL     1      21.934   3.233  49.310  1.00  0.00     0.139 A 
ATOM      6  C   UNL     1      21.881   3.307  50.717  1.00  0.00     0.071 A 
ATOM      7  C   UNL     1      22.058   4.319  47.056  1.00  0.00     0.198 C 
ATOM      8  O   UNL     1      22.024   3.223  46.505  1.00  0.00    -0.288 OA
ATOM      9  C   UNL     1      22.085   5.561  46.263  1.00  0.00     0.038 A 
ATOM     10  C   UNL     1      22.004   5.499  44.869  1.00  0.00     0.059 A 
ATOM     11  C   UNL     1      22.006   6.674  44.119  1.00  0.00     0.119 A 
ATOM     12  C   UNL     1      22.092   7.929  44.735  1.00  0.00    -0.008 A 
ATOM     13  C   UNL     1      22.082   9.211  43.954  1.00  0.00     0.048 C 
ATOM     14  C   UNL     1      22.180   7.976  46.135  1.00  0.00     0.020 A 
ATOM     15  C   UNL     1      22.171   6.797  46.895  1.00  0.00     0.034 A 
ATOM     16  C   UNL     1      22.236   6.875  48.367  1.00  0.00     0.194 C 
ATOM     17  O   UNL     1      22.355   7.961  48.922  1.00  0.00    -0.289 OA
ENDROOT
BRANCH   1  18
ATOM     18  O   UNL     1      21.932   4.569  52.716  1.00  0.00    -0.496 OA
ATOM     19  C   UNL     1      23.039   5.121  53.416  1.00  0.00     0.278 C 
ENDBRANCH   1  18
BRANCH   6  20
ATOM     20  C   UNL     1      21.676   2.085  51.527  1.00  0.00     0.043 A 
ATOM     21  C   UNL     1      20.364   1.544  51.597  1.00  0.00     0.131 A 
ATOM     22  C   UNL     1      22.728   1.452  52.242  1.00  0.00     0.049 A 
ATOM     23  C   UNL     1      20.111   0.413  52.371  1.00  0.00     0.094 A 
ATOM     24  C   UNL     1      22.448   0.330  53.031  1.00  0.00     0.076 A 
ATOM     25  C   UNL     1      24.133   1.949  52.182  1.00  0.00     0.193 C 
ATOM     26  C   UNL     1      21.144  -0.182  53.085  1.00  0.00     0.131 A 
ATOM     27  C   UNL     1      23.504  -0.317  53.829  1.00  0.00     0.196 C 
ATOM     28  O   UNL     1      24.465   2.958  51.569  1.00  0.00    -0.289 OA
ATOM     29  C   UNL     1      25.185   1.205  52.923  1.00  0.00     0.041 C 
ATOM     30  C   UNL     1      24.889   0.177  53.732  1.00  0.00     0.041 C 
ATOM     31  O   UNL     1      23.231  -1.261  54.568  1.00  0.00    -0.289 OA
ATOM     32  C   UNL     1      26.599   1.690  52.697  1.00  0.00     0.183 C 
ATOM     33  C   UNL     1      25.929  -0.552  54.540  1.00  0.00     0.180 C 
ATOM     34  C   UNL     1      27.686   0.701  53.206  1.00  0.00     0.121 C 
ATOM     35  C   UNL     1      27.293   0.167  54.592  1.00  0.00     0.182 C 
ATOM     36  C   UNL     1      29.074   1.354  53.227  1.00  0.00     0.048 C 
BRANCH  21  37
ATOM     37  O   UNL     1      19.396   2.208  50.879  1.00  0.00    -0.496 OA
ATOM     38  C   UNL     1      18.382   2.889  51.607  1.00  0.00     0.278 C 
ENDBRANCH  21  37
BRANCH  26  39
ATOM     39  O   UNL     1      20.787  -1.280  53.825  1.00  0.00    -0.507 OA
ATOM     40  H   UNL     1      19.819  -1.256  53.982  1.00  0.00     0.293 HD
ENDBRANCH  26  39
BRANCH  32  41
ATOM     41  O   UNL     1      26.723   2.948  53.359  1.00  0.00    -0.385 OA
ATOM     42  H   UNL     1      27.374   3.460  52.835  1.00  0.00     0.211 HD
ENDBRANCH  32  41
BRANCH  33  43
ATOM     43  O   UNL     1      25.506  -0.719  55.900  1.00  0.00    -0.385 OA
ATOM     44  H   UNL     1      24.574  -1.026  55.861  1.00  0.00     0.211 HD
ENDBRANCH  33  43
BRANCH  34  45
ATOM     45  O   UNL     1      27.769  -0.421  52.301  1.00  0.00    -0.384 OA
ATOM     46  H   UNL     1      26.840  -0.668  52.114  1.00  0.00     0.211 HD
ENDBRANCH  34  45
BRANCH  35  47
ATOM     47  O   UNL     1      28.282  -0.778  55.049  1.00  0.00    -0.387 OA
ATOM     48  H   UNL     1      28.896  -0.882  54.295  1.00  0.00     0.211 HD
ENDBRANCH  35  47
ENDBRANCH   6  20
BRANCH   5  49
ATOM     49  O   UNL     1      21.858   1.982  48.738  1.00  0.00    -0.506 OA
ATOM     50  H   UNL     1      20.913   1.702  48.727  1.00  0.00     0.293 HD
ENDBRANCH   5  49
BRANCH  11  51
ATOM     51  O   UNL     1      21.909   6.519  42.767  1.00  0.00    -0.508 OA
ATOM     52  H   UNL     1      22.646   6.973  42.323  1.00  0.00     0.293 HD
ENDBRANCH  11  51
TORSDOF 10
ENDMDL
MODEL 3
REMARK VINA RESULT:    -8.695      2.913      6.765
REMARK INTER + INTRA:         -12.517
REMARK INTER:                 -11.539
REMARK INTRA:                  -0.978
REMARK UNBOUND:                -0.518
REMARK SMILES COc1cc2c(c(O)c1-c1c(OC)cc(O)c3c1C(=O)C1=C(C3=O)[C@H](O)[C@@H](O)[C@@](C)(O)[C@@H]1O)C(=O)c1cc(O)c(C)cc1C2=O
REMARK SMILES IDX 3 1 4 2 5 3 6 4 7 5 9 6 34 7 35 8 36 9 37 10 38 11 40 12
REMARK SMILES IDX 41 13 42 14 43 15 44 16 45 17 2 18 1 19 10 20 11 21 18 22
REMARK SMILES IDX 14 23 17 24 19 25 15 26 23 27 20 28 21 29 22 30 24 31 32 32
REMARK SMILES IDX 25 33 29 34 27 35 30 36 12 37 13 38 16 39 33 41 26 43 31 45
REMARK SMILES IDX 28 47 8 49 39 51
REMARK H PARENT 16 40 33 42 26 44 31 46 28 48 8 50 39 52
ROOT
ATOM      1  C   UNL     1      22.288   4.114  48.024  1.00  0.00     0.131 A 
ATOM      2  C   UNL     1      21.243   4.743  47.341  1.00  0.00     0.060 A 
ATOM      3  C   UNL     1      20.638   5.891  47.873  1.00  0.00     0.041 A 
ATOM      4  C   UNL     1      21.052   6.407  49.099  1.00  0.00     0.076 A 
ATOM      5  C   UNL     1      22.088   5.768  49.798  1.00  0.00     0.139 A 
ATOM      6  C   UNL     1      22.726   4.630  49.266  1.00  0.00     0.071 A 
ATOM      7  C   UNL     1      20.416   7.627  49.634  1.00  0.00     0.198 C 
ATOM      8  O   UNL     1      20.755   8.055  50.734  1.00  0.00    -0.288 OA
ATOM      9  C   UNL     1      19.398   8.331  48.833  1.00  0.00     0.038 A 
ATOM     10  C   UNL     1      18.857   9.533  49.296  1.00  0.00     0.059 A 
ATOM     11  C   UNL     1      17.911  10.212  48.529  1.00  0.00     0.119 A 
ATOM     12  C   UNL     1      17.482   9.710  47.294  1.00  0.00    -0.008 A 
ATOM     13  C   UNL     1      16.477  10.426  46.440  1.00  0.00     0.048 C 
ATOM     14  C   UNL     1      18.030   8.498  46.844  1.00  0.00     0.020 A 
ATOM     15  C   UNL     1      18.987   7.814  47.609  1.00  0.00     0.034 A 
ATOM     16  C   UNL     1      19.567   6.557  47.101  1.00  0.00     0.194 C 
ATOM     17  O   UNL     1      19.175   6.080  46.043  1.00  0.00    -0.289 OA
ENDROOT
BRANCH   1  18
ATOM     18  O   UNL     1      22.948   2.996  47.571  1.00  0.00    -0.496 OA
ATOM     19  C   UNL     1      22.227   1.771  47.542  1.00  0.00     0.278 C 
ENDBRANCH   1  18
BRANCH   6  20
ATOM     20  C   UNL     1      23.871   4.012  49.972  1.00  0.00     0.043 A 
ATOM     21  C   UNL     1      25.167   4.545  49.735  1.00  0.00     0.131 A 
ATOM     22  C   UNL     1      23.724   2.907  50.853  1.00  0.00     0.049 A 
ATOM     23  C   UNL     1      26.282   3.979  50.350  1.00  0.00     0.094 A 
ATOM     24  C   UNL     1      24.860   2.340  51.444  1.00  0.00     0.076 A 
ATOM     25  C   UNL     1      22.389   2.325  51.171  1.00  0.00     0.193 C 
ATOM     26  C   UNL     1      26.128   2.884  51.191  1.00  0.00     0.131 A 
ATOM     27  C   UNL     1      24.750   1.160  52.318  1.00  0.00     0.196 C 
ATOM     28  O   UNL     1      21.345   2.712  50.657  1.00  0.00    -0.289 OA
ATOM     29  C   UNL     1      22.315   1.197  52.138  1.00  0.00     0.041 C 
ATOM     30  C   UNL     1      23.416   0.618  52.638  1.00  0.00     0.041 C 
ATOM     31  O   UNL     1      25.761   0.633  52.778  1.00  0.00    -0.289 OA
ATOM     32  C   UNL     1      20.917   0.758  52.512  1.00  0.00     0.183 C 
ATOM     33  C   UNL     1      23.368  -0.562  53.569  1.00  0.00     0.180 C 
ATOM     34  C   UNL     1      20.867  -0.173  53.756  1.00  0.00     0.121 C 
ATOM     35  C   UNL     1      21.979  -1.230  53.656  1.00  0.00     0.182 C 
ATOM     36  C   UNL     1      19.487  -0.823  53.916  1.00  0.00     0.048 C 
BRANCH  21  37
ATOM     37  O   UNL     1      25.234   5.614  48.872  1.00  0.00    -0.496 OA
ATOM     38  C   UNL     1      26.505   6.215  48.659  1.00  0.00     0.278 C 
ENDBRANCH  21  37
BRANCH  26  39
ATOM     39  O   UNL     1      27.288   2.394  51.735  1.00  0.00    -0.507 OA
ATOM     40  H   UNL     1      27.381   2.742  52.648  1.00  0.00     0.293 HD
ENDBRANCH  26  39
BRANCH  32  41
ATOM     41  O   UNL     1      20.365   0.098  51.373  1.00  0.00    -0.385 OA
ATOM     42  H   UNL     1      19.604  -0.419  51.709  1.00  0.00     0.211 HD
ENDBRANCH  32  41
BRANCH  33  43
ATOM     43  O   UNL     1      24.285  -1.585  53.159  1.00  0.00    -0.385 OA
ATOM     44  H   UNL     1      23.767  -2.214  52.612  1.00  0.00     0.211 HD
ENDBRANCH  33  43
BRANCH  34  45
ATOM     45  O   UNL     1      21.098   0.610  54.946  1.00  0.00    -0.384 OA
ATOM     46  H   UNL     1      21.827   0.153  55.414  1.00  0.00     0.211 HD
ENDBRANCH  34  45
BRANCH  35  47
ATOM     47  O   UNL     1      21.957  -2.072  54.826  1.00  0.00    -0.387 OA
ATOM     48  H   UNL     1      21.041  -2.411  54.875  1.00  0.00     0.211 HD
ENDBRANCH  35  47
ENDBRANCH   6  20
BRANCH   5  49
ATOM     49  O   UNL     1      22.527   6.229  51.020  1.00  0.00    -0.506 OA
ATOM     50  H   UNL     1      22.613   5.460  51.630  1.00  0.00     0.293 HD
ENDBRANCH   5  49
BRANCH  11  51
ATOM     51  O   UNL     1      17.448  11.383  49.052  1.00  0.00    -0.508 OA
ATOM     52  H   UNL     1      16.484  11.443  48.941  1.00  0.00     0.293 HD
ENDBRANCH  11  51
TORSDOF 10
ENDMDL
MODEL 4
REMARK VINA RESULT:    -8.488      4.523      8.600
REMARK INTER + INTRA:         -12.232
REMARK INTER:                 -11.239
REMARK INTRA:                  -0.993
REMARK UNBOUND:                -0.518
REMARK SMILES COc1cc2c(c(O)c1-c1c(OC)cc(O)c3c1C(=O)C1=C(C3=O)[C@H](O)[C@@H](O)[C@@](C)(O)[C@@H]1O)C(=O)c1cc(O)c(C)cc1C2=O
REMARK SMILES IDX 3 1 4 2 5 3 6 4 7 5 9 6 34 7 35 8 36 9 37 10 38 11 40 12
REMARK SMILES IDX 41 13 42 14 43 15 44 16 45 17 2 18 1 19 10 20 11 21 18 22
REMARK SMILES IDX 14 23 17 24 19 25 15 26 23 27 20 28 21 29 22 30 24 31 32 32
REMARK SMILES IDX 25 33 29 34 27 35 30 36 12 37 13 38 16 39 33 41 26 43 31 45
REMARK SMILES IDX 28 47 8 49 39 51
REMARK H PARENT 16 40 33 42 26 44 31 46 28 48 8 50 39 52
ROOT
ATOM      1  C   UNL     1      21.073   5.142  50.602  1.00  0.00     0.131 A 
ATOM      2  C   UNL     1      22.092   4.947  51.539  1.00  0.00     0.060 A 
ATOM      3  C   UNL     1      22.546   3.654  51.835  1.00  0.00     0.041 A 
ATOM      4  C   UNL     1      21.971   2.544  51.220  1.00  0.00     0.076 A 
ATOM      5  C   UNL     1      20.934   2.732  50.294  1.00  0.00     0.139 A 
ATOM      6  C   UNL     1      20.484   4.026  49.963  1.00  0.00     0.071 A 
ATOM      7  C   UNL     1      22.475   1.191  51.530  1.00  0.00     0.198 C 
ATOM      8  O   UNL     1      21.938   0.212  51.018  1.00  0.00    -0.288 OA
ATOM      9  C   UNL     1      23.628   1.030  52.433  1.00  0.00     0.038 A 
ATOM     10  C   UNL     1      24.163  -0.240  52.661  1.00  0.00     0.059 A 
ATOM     11  C   UNL     1      25.269  -0.391  53.497  1.00  0.00     0.119 A 
ATOM     12  C   UNL     1      25.861   0.713  54.124  1.00  0.00    -0.008 A 
ATOM     13  C   UNL     1      27.060   0.583  55.017  1.00  0.00     0.048 C 
ATOM     14  C   UNL     1      25.309   1.982  53.891  1.00  0.00     0.020 A 
ATOM     15  C   UNL     1      24.200   2.140  53.045  1.00  0.00     0.034 A 
ATOM     16  C   UNL     1      23.658   3.489  52.795  1.00  0.00     0.194 C 
ATOM     17  O   UNL     1      24.135   4.461  53.367  1.00  0.00    -0.289 OA
ENDROOT
BRANCH   1  18
ATOM     18  O   UNL     1      20.578   6.372  50.240  1.00  0.00    -0.496 OA
ATOM     19  C   UNL     1      21.349   7.519  50.575  1.00  0.00     0.278 C 
ENDBRANCH   1  18
BRANCH   6  20
ATOM     20  C   UNL     1      19.446   4.218  48.926  1.00  0.00     0.043 A 
ATOM     21  C   UNL     1      19.872   4.404  47.582  1.00  0.00     0.131 A 
ATOM     22  C   UNL     1      18.057   4.242  49.224  1.00  0.00     0.049 A 
ATOM     23  C   UNL     1      18.936   4.620  46.573  1.00  0.00     0.094 A 
ATOM     24  C   UNL     1      17.135   4.483  48.198  1.00  0.00     0.076 A 
ATOM     25  C   UNL     1      17.544   4.018  50.606  1.00  0.00     0.193 C 
ATOM     26  C   UNL     1      17.582   4.666  46.882  1.00  0.00     0.131 A 
ATOM     27  C   UNL     1      15.692   4.569  48.482  1.00  0.00     0.196 C 
ATOM     28  O   UNL     1      18.274   3.861  51.579  1.00  0.00    -0.289 OA
ATOM     29  C   UNL     1      16.074   4.014  50.829  1.00  0.00     0.041 C 
ATOM     30  C   UNL     1      15.208   4.319  49.852  1.00  0.00     0.041 C 
ATOM     31  O   UNL     1      14.900   4.845  47.584  1.00  0.00    -0.289 OA
ATOM     32  C   UNL     1      15.635   3.642  52.227  1.00  0.00     0.183 C 
ATOM     33  C   UNL     1      13.720   4.381  50.069  1.00  0.00     0.180 C 
ATOM     34  C   UNL     1      14.117   3.320  52.339  1.00  0.00     0.121 C 
ATOM     35  C   UNL     1      13.307   4.364  51.555  1.00  0.00     0.182 C 
ATOM     36  C   UNL     1      13.666   3.240  53.803  1.00  0.00     0.048 C 
BRANCH  21  37
ATOM     37  O   UNL     1      21.230   4.368  47.367  1.00  0.00    -0.496 OA
ATOM     38  C   UNL     1      21.699   3.699  46.203  1.00  0.00     0.278 C 
ENDBRANCH  21  37
BRANCH  26  39
ATOM     39  O   UNL     1      16.746   4.898  45.820  1.00  0.00    -0.507 OA
ATOM     40  H   UNL     1      15.817   4.835  46.129  1.00  0.00     0.293 HD
ENDBRANCH  26  39
BRANCH  32  41
ATOM     41  O   UNL     1      15.975   4.735  53.080  1.00  0.00    -0.385 OA
ATOM     42  H   UNL     1      15.773   5.545  52.567  1.00  0.00     0.211 HD
ENDBRANCH  32  41
BRANCH  33  43
ATOM     43  O   UNL     1      13.163   5.576  49.505  1.00  0.00    -0.385 OA
ATOM     44  H   UNL     1      13.258   6.271  50.191  1.00  0.00     0.211 HD
ENDBRANCH  33  43
BRANCH  34  45
ATOM     45  O   UNL     1      13.862   2.024  51.756  1.00  0.00    -0.384 OA
ATOM     46  H   UNL     1      14.690   1.517  51.889  1.00  0.00     0.211 HD
ENDBRANCH  34  45
BRANCH  35  47
ATOM     47  O   UNL     1      11.902   4.046  51.628  1.00  0.00    -0.387 OA
ATOM     48  H   UNL     1      11.825   3.421  52.376  1.00  0.00     0.211 HD
ENDBRANCH  35  47
ENDBRANCH   6  20
BRANCH   5  49
ATOM     49  O   UNL     1      20.323   1.668  49.667  1.00  0.00    -0.506 OA
ATOM     50  H   UNL     1      20.463   0.861  50.214  1.00  0.00     0.293 HD
ENDBRANCH   5  49
BRANCH  11  51
ATOM     51  O   UNL     1      25.731  -1.665  53.651  1.00  0.00    -0.508 OA
ATOM     52  H   UNL     1      26.391  -1.699  54.364  1.00  0.00     0.293 HD
ENDBRANCH  11  51
TORSDOF 10
ENDMDL
MODEL 5
REMARK VINA RESULT:    -8.174      2.961      9.697
REMARK INTER + INTRA:         -11.798
REMARK INTER:                 -11.308
REMARK INTRA:                  -0.490
REMARK UNBOUND:                -0.518
REMARK SMILES COc1cc2c(c(O)c1-c1c(OC)cc(O)c3c1C(=O)C1=C(C3=O)[C@H](O)[C@@H](O)[C@@](C)(O)[C@@H]1O)C(=O)c1cc(O)c(C)cc1C2=O
REMARK SMILES IDX 3 1 4 2 5 3 6 4 7 5 9 6 34 7 35 8 36 9 37 10 38 11 40 12
REMARK SMILES IDX 41 13 42 14 43 15 44 16 45 17 2 18 1 19 10 20 11 21 18 22
REMARK SMILES IDX 14 23 17 24 19 25 15 26 23 27 20 28 21 29 22 30 24 31 32 32
REMARK SMILES IDX 25 33 29 34 27 35 30 36 12 37 13 38 16 39 33 41 26 43 31 45
REMARK SMILES IDX 28 47 8 49 39 51
REMARK H PARENT 16 40 33 42 26 44 31 46 28 48 8 50 39 52
ROOT
ATOM      1  C   UNL     1      25.138   4.694  49.405  1.00  0.00     0.131 A 
ATOM      2  C   UNL     1      25.246   3.516  50.151  1.00  0.00     0.060 A 
ATOM      3  C   UNL     1      24.186   3.092  50.965  1.00  0.00     0.041 A 
ATOM      4  C   UNL     1      23.021   3.849  51.062  1.00  0.00     0.076 A 
ATOM      5  C   UNL     1      22.914   5.042  50.331  1.00  0.00     0.139 A 
ATOM      6  C   UNL     1      23.958   5.470  49.486  1.00  0.00     0.071 A 
ATOM      7  C   UNL     1      21.907   3.377  51.909  1.00  0.00     0.198 C 
ATOM      8  O   UNL     1      20.899   4.068  52.025  1.00  0.00    -0.288 OA
ATOM      9  C   UNL     1      22.010   2.074  52.589  1.00  0.00     0.038 A 
ATOM     10  C   UNL     1      20.925   1.584  53.322  1.00  0.00     0.059 A 
ATOM     11  C   UNL     1      21.012   0.340  53.946  1.00  0.00     0.119 A 
ATOM     12  C   UNL     1      22.175  -0.436  53.859  1.00  0.00    -0.008 A 
ATOM     13  C   UNL     1      22.292  -1.785  54.509  1.00  0.00     0.048 C 
ATOM     14  C   UNL     1      23.258   0.072  53.126  1.00  0.00     0.020 A 
ATOM     15  C   UNL     1      23.174   1.320  52.490  1.00  0.00     0.034 A 
ATOM     16  C   UNL     1      24.317   1.818  51.702  1.00  0.00     0.194 C 
ATOM     17  O   UNL     1      25.357   1.173  51.650  1.00  0.00    -0.289 OA
ENDROOT
BRANCH   1  18
ATOM     18  O   UNL     1      26.118   5.176  48.571  1.00  0.00    -0.496 OA
ATOM     19  C   UNL     1      27.449   4.724  48.787  1.00  0.00     0.278 C 
ENDBRANCH   1  18
BRANCH   6  20
ATOM     20  C   UNL     1      23.803   6.687  48.657  1.00  0.00     0.043 A 
ATOM     21  C   UNL     1      24.526   7.850  49.039  1.00  0.00     0.131 A 
ATOM     22  C   UNL     1      22.954   6.739  47.520  1.00  0.00     0.049 A 
ATOM     23  C   UNL     1      24.391   9.030  48.311  1.00  0.00     0.094 A 
ATOM     24  C   UNL     1      22.815   7.941  46.816  1.00  0.00     0.076 A 
ATOM     25  C   UNL     1      22.196   5.544  47.047  1.00  0.00     0.193 C 
ATOM     26  C   UNL     1      23.538   9.075  47.215  1.00  0.00     0.131 A 
ATOM     27  C   UNL     1      21.901   8.044  45.666  1.00  0.00     0.196 C 
ATOM     28  O   UNL     1      22.205   4.466  47.632  1.00  0.00    -0.289 OA
ATOM     29  C   UNL     1      21.363   5.667  45.821  1.00  0.00     0.041 C 
ATOM     30  C   UNL     1      21.183   6.843  45.202  1.00  0.00     0.041 C 
ATOM     31  O   UNL     1      21.740   9.122  45.098  1.00  0.00    -0.289 OA
ATOM     32  C   UNL     1      20.742   4.379  45.332  1.00  0.00     0.183 C 
ATOM     33  C   UNL     1      20.296   7.004  43.998  1.00  0.00     0.180 C 
ATOM     34  C   UNL     1      20.168   4.472  43.889  1.00  0.00     0.121 C 
ATOM     35  C   UNL     1      19.388   5.786  43.727  1.00  0.00     0.182 C 
ATOM     36  C   UNL     1      19.298   3.256  43.551  1.00  0.00     0.048 C 
BRANCH  21  37
ATOM     37  O   UNL     1      25.329   7.727  50.149  1.00  0.00    -0.496 OA
ATOM     38  C   UNL     1      26.576   8.410  50.143  1.00  0.00     0.278 C 
ENDBRANCH  21  37
BRANCH  26  39
ATOM     39  O   UNL     1      23.466  10.286  46.577  1.00  0.00    -0.507 OA
ATOM     40  H   UNL     1      23.511  11.001  47.248  1.00  0.00     0.293 HD
ENDBRANCH  26  39
BRANCH  32  41
ATOM     41  O   UNL     1      19.711   4.032  46.255  1.00  0.00    -0.385 OA
ATOM     42  H   UNL     1      19.479   4.862  46.720  1.00  0.00     0.211 HD
ENDBRANCH  32  41
BRANCH  33  43
ATOM     43  O   UNL     1      19.426   8.135  44.141  1.00  0.00    -0.385 OA
ATOM     44  H   UNL     1      18.851   8.141  43.346  1.00  0.00     0.211 HD
ENDBRANCH  33  43
BRANCH  34  45
ATOM     45  O   UNL     1      21.259   4.478  42.944  1.00  0.00    -0.384 OA
ATOM     46  H   UNL     1      21.320   5.404  42.630  1.00  0.00     0.211 HD
ENDBRANCH  34  45
BRANCH  35  47
ATOM     47  O   UNL     1      18.886   5.891  42.378  1.00  0.00    -0.387 OA
ATOM     48  H   UNL     1      18.617   6.827  42.283  1.00  0.00     0.211 HD
ENDBRANCH  35  47
ENDBRANCH   6  20
BRANCH   5  49
ATOM     49  O   UNL     1      21.789   5.835  50.400  1.00  0.00    -0.506 OA
ATOM     50  H   UNL     1      21.638   6.080  51.343  1.00  0.00     0.293 HD
ENDBRANCH   5  49
BRANCH  11  51
ATOM     51  O   UNL     1      19.901  -0.065  54.626  1.00  0.00    -0.508 OA
ATOM     52  H   UNL     1      19.493   0.690  55.082  1.00  0.00     0.293 HD
ENDBRANCH  11  51
TORSDOF 10
ENDMDL
MODEL 6
REMARK VINA RESULT:    -8.119      2.398      9.236
REMARK INTER + INTRA:         -11.722
REMARK INTER:                 -10.795
REMARK INTRA:                  -0.927
REMARK UNBOUND:                -0.518
REMARK SMILES COc1cc2c(c(O)c1-c1c(OC)cc(O)c3c1C(=O)C1=C(C3=O)[C@H](O)[C@@H](O)[C@@](C)(O)[C@@H]1O)C(=O)c1cc(O)c(C)cc1C2=O
REMARK SMILES IDX 3 1 4 2 5 3 6 4 7 5 9 6 34 7 35 8 36 9 37 10 38 11 40 12
REMARK SMILES IDX 41 13 42 14 43 15 44 16 45 17 2 18 1 19 10 20 11 21 18 22
REMARK SMILES IDX 14 23 17 24 19 25 15 26 23 27 20 28 21 29 22 30 24 31 32 32
REMARK SMILES IDX 25 33 29 34 27 35 30 36 12 37 13 38 16 39 33 41 26 43 31 45
REMARK SMILES IDX 28 47 8 49 39 51
REMARK H PARENT 16 40 33 42 26 44 31 46 28 48 8 50 39 52
ROOT
ATOM      1  C   UNL     1      23.839   6.277  47.719  1.00  0.00     0.131 A 
ATOM      2  C   UNL     1      23.177   5.050  47.822  1.00  0.00     0.060 A 
ATOM      3  C   UNL     1      23.123   4.374  49.049  1.00  0.00     0.041 A 
ATOM      4  C   UNL     1      23.750   4.901  50.176  1.00  0.00     0.076 A 
ATOM      5  C   UNL     1      24.433   6.123  50.074  1.00  0.00     0.139 A 
ATOM      6  C   UNL     1      24.473   6.830  48.855  1.00  0.00     0.071 A 
ATOM      7  C   UNL     1      23.667   4.184  51.464  1.00  0.00     0.198 C 
ATOM      8  O   UNL     1      24.256   4.631  52.445  1.00  0.00    -0.288 OA
ATOM      9  C   UNL     1      22.863   2.953  51.564  1.00  0.00     0.038 A 
ATOM     10  C   UNL     1      22.711   2.320  52.800  1.00  0.00     0.059 A 
ATOM     11  C   UNL     1      21.930   1.168  52.901  1.00  0.00     0.119 A 
ATOM     12  C   UNL     1      21.292   0.624  51.780  1.00  0.00    -0.008 A 
ATOM     13  C   UNL     1      20.435  -0.606  51.860  1.00  0.00     0.048 C 
ATOM     14  C   UNL     1      21.459   1.267  50.544  1.00  0.00     0.020 A 
ATOM     15  C   UNL     1      22.238   2.430  50.438  1.00  0.00     0.034 A 
ATOM     16  C   UNL     1      22.374   3.102  49.132  1.00  0.00     0.194 C 
ATOM     17  O   UNL     1      21.859   2.618  48.133  1.00  0.00    -0.289 OA
ENDROOT
BRANCH   1  18
ATOM     18  O   UNL     1      23.927   7.015  46.562  1.00  0.00    -0.496 OA
ATOM     19  C   UNL     1      22.809   7.005  45.685  1.00  0.00     0.278 C 
ENDBRANCH   1  18
BRANCH   6  20
ATOM     20  C   UNL     1      25.127   8.156  48.778  1.00  0.00     0.043 A 
ATOM     21  C   UNL     1      24.300   9.311  48.824  1.00  0.00     0.131 A 
ATOM     22  C   UNL     1      26.532   8.313  48.642  1.00  0.00     0.049 A 
ATOM     23  C   UNL     1      24.862  10.582  48.723  1.00  0.00     0.094 A 
ATOM     24  C   UNL     1      27.075   9.598  48.520  1.00  0.00     0.076 A 
ATOM     25  C   UNL     1      27.457   7.143  48.623  1.00  0.00     0.193 C 
ATOM     26  C   UNL     1      26.235  10.721  48.566  1.00  0.00     0.131 A 
ATOM     27  C   UNL     1      28.521   9.794  48.322  1.00  0.00     0.196 C 
ATOM     28  O   UNL     1      27.073   5.979  48.662  1.00  0.00    -0.289 OA
ATOM     29  C   UNL     1      28.920   7.393  48.522  1.00  0.00     0.041 C 
ATOM     30  C   UNL     1      29.418   8.623  48.332  1.00  0.00     0.041 C 
ATOM     31  O   UNL     1      28.975  10.923  48.152  1.00  0.00    -0.289 OA
ATOM     32  C   UNL     1      29.794   6.166  48.650  1.00  0.00     0.183 C 
ATOM     33  C   UNL     1      30.889   8.893  48.167  1.00  0.00     0.180 C 
ATOM     34  C   UNL     1      31.297   6.492  48.879  1.00  0.00     0.121 C 
ATOM     35  C   UNL     1      31.731   7.622  47.932  1.00  0.00     0.182 C 
ATOM     36  C   UNL     1      32.175   5.246  48.707  1.00  0.00     0.048 C 
BRANCH  21  37
ATOM     37  O   UNL     1      22.949   9.084  48.958  1.00  0.00    -0.496 OA
ATOM     38  C   UNL     1      22.068   9.823  48.121  1.00  0.00     0.278 C 
ENDBRANCH  21  37
BRANCH  26  39
ATOM     39  O   UNL     1      26.686  12.012  48.463  1.00  0.00    -0.507 OA
ATOM     40  H   UNL     1      26.016  12.613  48.852  1.00  0.00     0.293 HD
ENDBRANCH  26  39
BRANCH  32  41
ATOM     41  O   UNL     1      29.626   5.403  47.456  1.00  0.00    -0.385 OA
ATOM     42  H   UNL     1      28.889   4.784  47.637  1.00  0.00     0.211 HD
ENDBRANCH  32  41
BRANCH  33  43
ATOM     43  O   UNL     1      31.135   9.756  47.048  1.00  0.00    -0.385 OA
ATOM     44  H   UNL     1      30.939   9.227  46.246  1.00  0.00     0.211 HD
ENDBRANCH  33  43
BRANCH  34  45
ATOM     45  O   UNL     1      31.484   6.947  50.236  1.00  0.00    -0.384 OA
ATOM     46  H   UNL     1      30.597   7.236  50.533  1.00  0.00     0.211 HD
ENDBRANCH  34  45
BRANCH  35  47
ATOM     47  O   UNL     1      33.116   7.950  48.168  1.00  0.00    -0.387 OA
ATOM     48  H   UNL     1      33.093   8.801  48.649  1.00  0.00     0.211 HD
ENDBRANCH  35  47
ENDBRANCH   6  20
BRANCH   5  49
ATOM     49  O   UNL     1      25.080   6.682  51.154  1.00  0.00    -0.506 OA
ATOM     50  H   UNL     1      25.757   7.314  50.818  1.00  0.00     0.293 HD
ENDBRANCH   5  49
BRANCH  11  51
ATOM     51  O   UNL     1      21.826   0.625  54.148  1.00  0.00    -0.508 OA
ATOM     52  H   UNL     1      21.370  -0.232  54.104  1.00  0.00     0.293 HD
ENDBRANCH  11  51
TORSDOF 10
ENDMDL
MODEL 7
REMARK VINA RESULT:    -8.003      3.419      9.554
REMARK INTER + INTRA:         -11.562
REMARK INTER:                 -10.721
REMARK INTRA:                  -0.841
REMARK UNBOUND:                -0.518
REMARK SMILES COc1cc2c(c(O)c1-c1c(OC)cc(O)c3c1C(=O)C1=C(C3=O)[C@H](O)[C@@H](O)[C@@](C)(O)[C@@H]1O)C(=O)c1cc(O)c(C)cc1C2=O
REMARK SMILES IDX 3 1 4 2 5 3 6 4 7 5 9 6 34 7 35 8 36 9 37 10 38 11 40 12
REMARK SMILES IDX 41 13 42 14 43 15 44 16 45 17 2 18 1 19 10 20 11 21 18 22
REMARK SMILES IDX 14 23 17 24 19 25 15 26 23 27 20 28 21 29 22 30 24 31 32 32
REMARK SMILES IDX 25 33 29 34 27 35 30 36 12 37 13 38 16 39 33 41 26 43 31 45
REMARK SMILES IDX 28 47 8 49 39 51
REMARK H PARENT 16 40 33 42 26 44 31 46 28 48 8 50 39 52
ROOT
ATOM      1  C   UNL     1      20.351   4.776  50.445  1.00  0.00     0.131 A 
ATOM      2  C   UNL     1      20.256   3.721  51.358  1.00  0.00     0.060 A 
ATOM      3  C   UNL     1      21.371   2.915  51.629  1.00  0.00     0.041 A 
ATOM      4  C   UNL     1      22.581   3.136  50.974  1.00  0.00     0.076 A 
ATOM      5  C   UNL     1      22.677   4.181  50.042  1.00  0.00     0.139 A 
ATOM      6  C   UNL     1      21.574   5.019  49.778  1.00  0.00     0.071 A 
ATOM      7  C   UNL     1      23.749   2.290  51.287  1.00  0.00     0.198 C 
ATOM      8  O   UNL     1      24.802   2.461  50.678  1.00  0.00    -0.288 OA
ATOM      9  C   UNL     1      23.646   1.263  52.339  1.00  0.00     0.038 A 
ATOM     10  C   UNL     1      24.773   0.518  52.698  1.00  0.00     0.059 A 
ATOM     11  C   UNL     1      24.683  -0.437  53.710  1.00  0.00     0.119 A 
ATOM     12  C   UNL     1      23.476  -0.674  54.379  1.00  0.00    -0.008 A 
ATOM     13  C   UNL     1      23.352  -1.685  55.482  1.00  0.00     0.048 C 
ATOM     14  C   UNL     1      22.351   0.077  54.004  1.00  0.00     0.020 A 
ATOM     15  C   UNL     1      22.438   1.044  52.991  1.00  0.00     0.034 A 
ATOM     16  C   UNL     1      21.247   1.839  52.635  1.00  0.00     0.194 C 
ATOM     17  O   UNL     1      20.173   1.617  53.179  1.00  0.00    -0.289 OA
ENDROOT
BRANCH   1  18
ATOM     18  O   UNL     1      19.316   5.624  50.131  1.00  0.00    -0.496 OA
ATOM     19  C   UNL     1      18.062   5.041  49.798  1.00  0.00     0.278 C 
ENDBRANCH   1  18
BRANCH   6  20
ATOM     20  C   UNL     1      21.709   6.168  48.854  1.00  0.00     0.043 A 
ATOM     21  C   UNL     1      22.345   7.342  49.339  1.00  0.00     0.131 A 
ATOM     22  C   UNL     1      21.213   6.145  47.523  1.00  0.00     0.049 A 
ATOM     23  C   UNL     1      22.469   8.463  48.519  1.00  0.00     0.094 A 
ATOM     24  C   UNL     1      21.328   7.289  46.724  1.00  0.00     0.076 A 
ATOM     25  C   UNL     1      20.567   4.932  46.943  1.00  0.00     0.193 C 
ATOM     26  C   UNL     1      21.958   8.436  47.228  1.00  0.00     0.131 A 
ATOM     27  C   UNL     1      20.776   7.317  45.359  1.00  0.00     0.196 C 
ATOM     28  O   UNL     1      20.366   3.905  47.583  1.00  0.00    -0.289 OA
ATOM     29  C   UNL     1      20.114   4.973  45.527  1.00  0.00     0.041 C 
ATOM     30  C   UNL     1      20.165   6.098  44.799  1.00  0.00     0.041 C 
ATOM     31  O   UNL     1      20.826   8.349  44.692  1.00  0.00    -0.289 OA
ATOM     32  C   UNL     1      19.600   3.662  44.977  1.00  0.00     0.183 C 
ATOM     33  C   UNL     1      19.657   6.179  43.385  1.00  0.00     0.180 C 
ATOM     34  C   UNL     1      19.456   3.650  43.428  1.00  0.00     0.121 C 
ATOM     35  C   UNL     1      18.809   4.962  42.958  1.00  0.00     0.182 C 
ATOM     36  C   UNL     1      18.663   2.428  42.947  1.00  0.00     0.048 C 
BRANCH  21  37
ATOM     37  O   UNL     1      22.801   7.293  50.636  1.00  0.00    -0.496 OA
ATOM     38  C   UNL     1      24.160   7.638  50.874  1.00  0.00     0.278 C 
ENDBRANCH  21  37
BRANCH  26  39
ATOM     39  O   UNL     1      22.119   9.593  46.509  1.00  0.00    -0.507 OA
ATOM     40  H   UNL     1      21.246   9.873  46.161  1.00  0.00     0.293 HD
ENDBRANCH  26  39
BRANCH  32  41
ATOM     41  O   UNL     1      18.338   3.412  45.595  1.00  0.00    -0.385 OA
ATOM     42  H   UNL     1      17.691   3.352  44.863  1.00  0.00     0.211 HD
ENDBRANCH  32  41
BRANCH  33  43
ATOM     43  O   UNL     1      18.831   7.336  43.197  1.00  0.00    -0.385 OA
ATOM     44  H   UNL     1      19.140   7.760  42.368  1.00  0.00     0.211 HD
ENDBRANCH  33  43
BRANCH  34  45
ATOM     45  O   UNL     1      20.766   3.556  42.830  1.00  0.00    -0.384 OA
ATOM     46  H   UNL     1      21.190   4.421  43.007  1.00  0.00     0.211 HD
ENDBRANCH  34  45
BRANCH  35  47
ATOM     47  O   UNL     1      18.709   4.968  41.519  1.00  0.00    -0.387 OA
ATOM     48  H   UNL     1      19.073   5.833  41.245  1.00  0.00     0.211 HD
ENDBRANCH  35  47
ENDBRANCH   6  20
BRANCH   5  49
ATOM     49  O   UNL     1      23.845   4.435  49.359  1.00  0.00    -0.506 OA
ATOM     50  H   UNL     1      23.625   4.944  48.544  1.00  0.00     0.293 HD
ENDBRANCH   5  49
BRANCH  11  51
ATOM     51  O   UNL     1      25.835  -1.106  54.003  1.00  0.00    -0.508 OA
ATOM     52  H   UNL     1      26.525  -0.885  53.355  1.00  0.00     0.293 HD
ENDBRANCH  11  51
TORSDOF 10
ENDMDL
MODEL 8
REMARK VINA RESULT:    -7.935      3.820      9.839
REMARK INTER + INTRA:         -11.468
REMARK INTER:                 -10.400
REMARK INTRA:                  -1.068
REMARK UNBOUND:                -0.518
REMARK SMILES COc1cc2c(c(O)c1-c1c(OC)cc(O)c3c1C(=O)C1=C(C3=O)[C@H](O)[C@@H](O)[C@@](C)(O)[C@@H]1O)C(=O)c1cc(O)c(C)cc1C2=O
REMARK SMILES IDX 3 1 4 2 5 3 6 4 7 5 9 6 34 7 35 8 36 9 37 10 38 11 40 12
REMARK SMILES IDX 41 13 42 14 43 15 44 16 45 17 2 18 1 19 10 20 11 21 18 22
REMARK SMILES IDX 14 23 17 24 19 25 15 26 23 27 20 28 21 29 22 30 24 31 32 32
REMARK SMILES IDX 25 33 29 34 27 35 30 36 12 37 13 38 16 39 33 41 26 43 31 45
REMARK SMILES IDX 28 47 8 49 39 51
REMARK H PARENT 16 40 33 42 26 44 31 46 28 48 8 50 39 52
ROOT
ATOM      1  C   UNL     1      23.306   7.457  49.942  1.00  0.00     0.131 A 
ATOM      2  C   UNL     1      22.996   6.349  50.736  1.00  0.00     0.060 A 
ATOM      3  C   UNL     1      23.848   5.236  50.766  1.00  0.00     0.041 A 
ATOM      4  C   UNL     1      25.002   5.207  49.987  1.00  0.00     0.076 A 
ATOM      5  C   UNL     1      25.310   6.308  49.173  1.00  0.00     0.139 A 
ATOM      6  C   UNL     1      24.479   7.447  49.152  1.00  0.00     0.071 A 
ATOM      7  C   UNL     1      25.898   4.035  50.046  1.00  0.00     0.198 C 
ATOM      8  O   UNL     1      26.892   3.995  49.327  1.00  0.00    -0.288 OA
ATOM      9  C   UNL     1      25.600   2.935  50.981  1.00  0.00     0.038 A 
ATOM     10  C   UNL     1      26.490   1.865  51.103  1.00  0.00     0.059 A 
ATOM     11  C   UNL     1      26.221   0.835  52.004  1.00  0.00     0.119 A 
ATOM     12  C   UNL     1      25.066   0.847  52.796  1.00  0.00    -0.008 A 
ATOM     13  C   UNL     1      24.758  -0.240  53.785  1.00  0.00     0.048 C 
ATOM     14  C   UNL     1      24.178   1.925  52.658  1.00  0.00     0.020 A 
ATOM     15  C   UNL     1      24.447   2.967  51.757  1.00  0.00     0.034 A 
ATOM     16  C   UNL     1      23.511   4.102  51.653  1.00  0.00     0.194 C 
ATOM     17  O   UNL     1      22.475   4.109  52.305  1.00  0.00    -0.289 OA
ENDROOT
BRANCH   1  18
ATOM     18  O   UNL     1      22.538   8.594  49.864  1.00  0.00    -0.496 OA
ATOM     19  C   UNL     1      21.158   8.439  49.562  1.00  0.00     0.278 C 
ENDBRANCH   1  18
BRANCH   6  20
ATOM     20  C   UNL     1      24.854   8.635  48.352  1.00  0.00     0.043 A 
ATOM     21  C   UNL     1      25.752   9.573  48.932  1.00  0.00     0.131 A 
ATOM     22  C   UNL     1      24.341   8.878  47.050  1.00  0.00     0.049 A 
ATOM     23  C   UNL     1      26.112  10.724  48.234  1.00  0.00     0.094 A 
ATOM     24  C   UNL     1      24.699  10.052  46.375  1.00  0.00     0.076 A 
ATOM     25  C   UNL     1      23.424   7.917  46.372  1.00  0.00     0.193 C 
ATOM     26  C   UNL     1      25.584  10.962  46.972  1.00  0.00     0.131 A 
ATOM     27  C   UNL     1      24.141  10.361  45.048  1.00  0.00     0.196 C 
ATOM     28  O   UNL     1      23.007   6.894  46.905  1.00  0.00    -0.289 OA
ATOM     29  C   UNL     1      22.966   8.222  44.991  1.00  0.00     0.041 C 
ATOM     30  C   UNL     1      23.258   9.383  44.388  1.00  0.00     0.041 C 
ATOM     31  O   UNL     1      24.413  11.426  44.495  1.00  0.00    -0.289 OA
ATOM     32  C   UNL     1      22.155   7.133  44.325  1.00  0.00     0.183 C 
ATOM     33  C   UNL     1      22.755   9.740  43.015  1.00  0.00     0.180 C 
ATOM     34  C   UNL     1      21.983   7.333  42.793  1.00  0.00     0.121 C 
ATOM     35  C   UNL     1      21.644   8.802  42.497  1.00  0.00     0.182 C 
ATOM     36  C   UNL     1      20.923   6.384  42.218  1.00  0.00     0.048 C 
BRANCH  21  37
ATOM     37  O   UNL     1      26.209   9.273  50.195  1.00  0.00    -0.496 OA
ATOM     38  C   UNL     1      27.615   9.276  50.408  1.00  0.00     0.278 C 
ENDBRANCH  21  37
BRANCH  26  39
ATOM     39  O   UNL     1      25.991  12.128  46.376  1.00  0.00    -0.507 OA
ATOM     40  H   UNL     1      26.819  11.957  45.879  1.00  0.00     0.293 HD
ENDBRANCH  26  39
BRANCH  32  41
ATOM     41  O   UNL     1      20.883   7.103  44.969  1.00  0.00    -0.385 OA
ATOM     42  H   UNL     1      20.898   7.833  45.622  1.00  0.00     0.211 HD
ENDBRANCH  32  41
BRANCH  33  43
ATOM     43  O   UNL     1      22.211  11.067  42.990  1.00  0.00    -0.385 OA
ATOM     44  H   UNL     1      22.973  11.676  43.089  1.00  0.00     0.211 HD
ENDBRANCH  33  43
BRANCH  34  45
ATOM     45  O   UNL     1      23.225   7.017  42.129  1.00  0.00    -0.384 OA
ATOM     46  H   UNL     1      23.381   6.068  42.317  1.00  0.00     0.211 HD
ENDBRANCH  34  45
BRANCH  35  47
ATOM     47  O   UNL     1      21.520   8.997  41.073  1.00  0.00    -0.387 OA
ATOM     48  H   UNL     1      22.061   8.286  40.675  1.00  0.00     0.211 HD
ENDBRANCH  35  47
ENDBRANCH   6  20
BRANCH   5  49
ATOM     49  O   UNL     1      26.432   6.326  48.374  1.00  0.00    -0.506 OA
ATOM     50  H   UNL     1      27.060   5.643  48.704  1.00  0.00     0.293 HD
ENDBRANCH   5  49
BRANCH  11  51
ATOM     51  O   UNL     1      27.151  -0.161  52.067  1.00  0.00    -0.508 OA
ATOM     52  H   UNL     1      27.087  -0.627  52.917  1.00  0.00     0.293 HD
ENDBRANCH  11  51
TORSDOF 10
ENDMDL
MODEL 9
REMARK VINA RESULT:    -7.864      6.125     11.023
REMARK INTER + INTRA:         -11.370
REMARK INTER:                 -10.295
REMARK INTRA:                  -1.075
REMARK UNBOUND:                -0.518
REMARK SMILES COc1cc2c(c(O)c1-c1c(OC)cc(O)c3c1C(=O)C1=C(C3=O)[C@H](O)[C@@H](O)[C@@](C)(O)[C@@H]1O)C(=O)c1cc(O)c(C)cc1C2=O
REMARK SMILES IDX 3 1 4 2 5 3 6 4 7 5 9 6 34 7 35 8 36 9 37 10 38 11 40 12
REMARK SMILES IDX 41 13 42 14 43 15 44 16 45 17 2 18 1 19 10 20 11 21 18 22
REMARK SMILES IDX 14 23 17 24 19 25 15 26 23 27 20 28 21 29 22 30 24 31 32 32
REMARK SMILES IDX 25 33 29 34 27 35 30 36 12 37 13 38 16 39 33 41 26 43 31 45
REMARK SMILES IDX 28 47 8 49 39 51
REMARK H PARENT 16 40 33 42 26 44 31 46 28 48 8 50 39 52
ROOT
ATOM      1  C   UNL     1      16.651  -0.151  52.202  1.00  0.00     0.131 A 
ATOM      2  C   UNL     1      17.788  -0.697  52.804  1.00  0.00     0.060 A 
ATOM      3  C   UNL     1      19.066  -0.236  52.456  1.00  0.00     0.041 A 
ATOM      4  C   UNL     1      19.223   0.754  51.489  1.00  0.00     0.076 A 
ATOM      5  C   UNL     1      18.086   1.293  50.868  1.00  0.00     0.139 A 
ATOM      6  C   UNL     1      16.792   0.861  51.225  1.00  0.00     0.071 A 
ATOM      7  C   UNL     1      20.575   1.241  51.150  1.00  0.00     0.198 C 
ATOM      8  O   UNL     1      20.712   2.084  50.268  1.00  0.00    -0.288 OA
ATOM      9  C   UNL     1      21.742   0.726  51.887  1.00  0.00     0.038 A 
ATOM     10  C   UNL     1      23.013   1.246  51.630  1.00  0.00     0.059 A 
ATOM     11  C   UNL     1      24.116   0.776  52.343  1.00  0.00     0.119 A 
ATOM     12  C   UNL     1      23.978  -0.219  53.319  1.00  0.00    -0.008 A 
ATOM     13  C   UNL     1      25.144  -0.733  54.113  1.00  0.00     0.048 C 
ATOM     14  C   UNL     1      22.697  -0.737  53.563  1.00  0.00     0.020 A 
ATOM     15  C   UNL     1      21.583  -0.263  52.852  1.00  0.00     0.034 A 
ATOM     16  C   UNL     1      20.243  -0.804  53.148  1.00  0.00     0.194 C 
ATOM     17  O   UNL     1      20.109  -1.704  53.967  1.00  0.00    -0.289 OA
ENDROOT
BRANCH   1  18
ATOM     18  O   UNL     1      15.362  -0.531  52.492  1.00  0.00    -0.496 OA
ATOM     19  C   UNL     1      14.987  -1.871  52.202  1.00  0.00     0.278 C 
ENDBRANCH   1  18
BRANCH   6  20
ATOM     20  C   UNL     1      15.597   1.493  50.621  1.00  0.00     0.043 A 
ATOM     21  C   UNL     1      15.072   2.658  51.244  1.00  0.00     0.131 A 
ATOM     22  C   UNL     1      14.952   0.971  49.468  1.00  0.00     0.049 A 
ATOM     23  C   UNL     1      13.930   3.272  50.735  1.00  0.00     0.094 A 
ATOM     24  C   UNL     1      13.793   1.591  48.985  1.00  0.00     0.076 A 
ATOM     25  C   UNL     1      15.473  -0.226  48.748  1.00  0.00     0.193 C 
ATOM     26  C   UNL     1      13.295   2.738  49.620  1.00  0.00     0.131 A 
ATOM     27  C   UNL     1      13.069   1.045  47.825  1.00  0.00     0.196 C 
ATOM     28  O   UNL     1      16.443  -0.872  49.128  1.00  0.00    -0.289 OA
ATOM     29  C   UNL     1      14.767  -0.684  47.521  1.00  0.00     0.041 C 
ATOM     30  C   UNL     1      13.618  -0.125  47.115  1.00  0.00     0.041 C 
ATOM     31  O   UNL     1      12.017   1.561  47.452  1.00  0.00    -0.289 OA
ATOM     32  C   UNL     1      15.437  -1.815  46.775  1.00  0.00     0.183 C 
ATOM     33  C   UNL     1      12.854  -0.610  45.913  1.00  0.00     0.180 C 
ATOM     34  C   UNL     1      14.872  -2.039  45.344  1.00  0.00     0.121 C 
ATOM     35  C   UNL     1      13.337  -1.975  45.378  1.00  0.00     0.182 C 
ATOM     36  C   UNL     1      15.366  -3.362  44.746  1.00  0.00     0.048 C 
BRANCH  21  37
ATOM     37  O   UNL     1      15.747   3.107  52.356  1.00  0.00    -0.496 OA
ATOM     38  C   UNL     1      15.106   4.079  53.172  1.00  0.00     0.278 C 
ENDBRANCH  21  37
BRANCH  26  39
ATOM     39  O   UNL     1      12.172   3.409  49.207  1.00  0.00    -0.507 OA
ATOM     40  H   UNL     1      11.651   2.822  48.619  1.00  0.00     0.293 HD
ENDBRANCH  26  39
BRANCH  32  41
ATOM     41  O   UNL     1      15.277  -2.993  47.564  1.00  0.00    -0.385 OA
ATOM     42  H   UNL     1      14.426  -2.882  48.036  1.00  0.00     0.211 HD
ENDBRANCH  32  41
BRANCH  33  43
ATOM     43  O   UNL     1      11.459  -0.761  46.211  1.00  0.00    -0.385 OA
ATOM     44  H   UNL     1      10.997  -0.045  45.723  1.00  0.00     0.211 HD
ENDBRANCH  33  43
BRANCH  34  45
ATOM     45  O   UNL     1      15.346  -0.989  44.475  1.00  0.00    -0.384 OA
ATOM     46  H   UNL     1      14.758  -0.225  44.653  1.00  0.00     0.211 HD
ENDBRANCH  34  45
BRANCH  35  47
ATOM     47  O   UNL     1      12.812  -2.147  44.046  1.00  0.00    -0.387 OA
ATOM     48  H   UNL     1      12.035  -2.732  44.155  1.00  0.00     0.211 HD
ENDBRANCH  35  47
ENDBRANCH   6  20
BRANCH   5  49
ATOM     49  O   UNL     1      18.185   2.265  49.896  1.00  0.00    -0.506 OA
ATOM     50  H   UNL     1      17.870   3.118  50.276  1.00  0.00     0.293 HD
ENDBRANCH   5  49
BRANCH  11  51
ATOM     51  O   UNL     1      25.314   1.351  52.036  1.00  0.00    -0.508 OA
ATOM     52  H   UNL     1      25.183   2.276  51.767  1.00  0.00     0.293 HD
ENDBRANCH  11  51
TORSDOF 10
ENDMDL
