MODEL 1
REMARK VINA RESULT:    -9.518      0.000      0.000
REMARK INTER + INTRA:         -10.631
REMARK INTER:                 -10.631
REMARK INTRA:                   0.000
REMARK UNBOUND:                 0.000
REMARK SMILES O=C1C[C@H](O)[C@@H]2c3c(ccc(O)c31)-c1ccc(O)c3c1[C@@]2(O)CCC3=O
REMARK SMILES IDX 1 1 2 2 3 3 4 4 6 5 7 6 8 7 9 8 10 9 11 10 13 11 14 12 15 13
REMARK SMILES IDX 16 14 17 15 19 16 20 17 21 18 23 19 24 20 25 21 26 22 5 23
REMARK SMILES IDX 12 25 22 27 18 29
REMARK H PARENT 5 24 12 26 22 28 18 30
ROOT
ATOM      1  O   UNL     1      25.404   5.323  49.962  1.00  0.00    -0.294 OA
ATOM      2  C   UNL     1      24.585   4.672  50.610  1.00  0.00     0.169 C 
ATOM      3  C   UNL     1      23.229   5.209  50.944  1.00  0.00     0.113 C 
ATOM      4  C   UNL     1      22.179   4.112  50.910  1.00  0.00     0.133 C 
ATOM      5  C   UNL     1      22.519   2.961  51.885  1.00  0.00     0.086 C 
ATOM      6  C   UNL     1      23.989   2.547  51.792  1.00  0.00    -0.017 A 
ATOM      7  C   UNL     1      24.374   1.315  52.377  1.00  0.00    -0.013 A 
ATOM      8  C   UNL     1      25.715   0.906  52.256  1.00  0.00     0.013 A 
ATOM      9  C   UNL     1      26.662   1.695  51.604  1.00  0.00     0.047 A 
ATOM     10  C   UNL     1      26.286   2.913  51.062  1.00  0.00     0.126 A 
ATOM     11  C   UNL     1      24.958   3.350  51.160  1.00  0.00     0.064 A 
ATOM     12  C   UNL     1      23.358   0.473  53.050  1.00  0.00    -0.011 A 
ATOM     13  C   UNL     1      23.706  -0.476  54.029  1.00  0.00     0.013 A 
ATOM     14  C   UNL     1      22.747  -1.297  54.619  1.00  0.00     0.047 A 
ATOM     15  C   UNL     1      21.419  -1.191  54.237  1.00  0.00     0.126 A 
ATOM     16  C   UNL     1      21.031  -0.243  53.281  1.00  0.00     0.066 A 
ATOM     17  C   UNL     1      21.990   0.616  52.704  1.00  0.00     0.007 A 
ATOM     18  C   UNL     1      21.597   1.697  51.698  1.00  0.00     0.101 C 
ATOM     19  C   UNL     1      20.105   2.041  51.839  1.00  0.00     0.049 C 
ATOM     20  C   UNL     1      19.227   0.801  51.788  1.00  0.00     0.084 C 
ATOM     21  C   UNL     1      19.606  -0.168  52.868  1.00  0.00     0.167 C 
ATOM     22  O   UNL     1      18.782  -0.929  53.377  1.00  0.00    -0.294 OA
ENDROOT
BRANCH   4  23
ATOM     23  O   UNL     1      20.947   4.727  51.300  1.00  0.00    -0.392 OA
ATOM     24  H   UNL     1      20.511   5.059  50.493  1.00  0.00     0.210 HD
ENDBRANCH   4  23
BRANCH  10  25
ATOM     25  O   UNL     1      27.275   3.631  50.448  1.00  0.00    -0.507 OA
ATOM     26  H   UNL     1      28.063   3.636  51.037  1.00  0.00     0.293 HD
ENDBRANCH  10  25
BRANCH  18  27
ATOM     27  O   UNL     1      21.777   1.176  50.371  1.00  0.00    -0.384 OA
ATOM     28  H   UNL     1      21.890   0.210  50.427  1.00  0.00     0.211 HD
ENDBRANCH  18  27
BRANCH  15  29
ATOM     29  O   UNL     1      20.548  -2.052  54.847  1.00  0.00    -0.507 OA
ATOM     30  H   UNL     1      21.075  -2.733  55.326  1.00  0.00     0.293 HD
ENDBRANCH  15  29
TORSDOF 4
ENDMDL
MODEL 2
REMARK VINA RESULT:    -9.383      0.797      5.830
REMARK INTER + INTRA:         -10.480
REMARK INTER:                 -10.480
REMARK INTRA:                   0.000
REMARK UNBOUND:                 0.000
REMARK SMILES O=C1C[C@H](O)[C@@H]2c3c(ccc(O)c31)-c1ccc(O)c3c1[C@@]2(O)CCC3=O
REMARK SMILES IDX 1 1 2 2 3 3 4 4 6 5 7 6 8 7 9 8 10 9 11 10 13 11 14 12 15 13
REMARK SMILES IDX 16 14 17 15 19 16 20 17 21 18 23 19 24 20 25 21 26 22 5 23
REMARK SMILES IDX 12 25 22 27 18 29
REMARK H PARENT 5 24 12 26 22 28 18 30
ROOT
ATOM      1  O   UNL     1      19.046  -0.943  53.456  1.00  0.00    -0.294 OA
ATOM      2  C   UNL     1      19.857  -0.340  52.754  1.00  0.00     0.169 C 
ATOM      3  C   UNL     1      19.479   0.254  51.434  1.00  0.00     0.113 C 
ATOM      4  C   UNL     1      20.206   1.564  51.191  1.00  0.00     0.133 C 
ATOM      5  C   UNL     1      21.742   1.388  51.242  1.00  0.00     0.086 C 
ATOM      6  C   UNL     1      22.181   0.537  52.436  1.00  0.00    -0.017 A 
ATOM      7  C   UNL     1      23.551   0.550  52.798  1.00  0.00    -0.013 A 
ATOM      8  C   UNL     1      23.954  -0.194  53.923  1.00  0.00     0.013 A 
ATOM      9  C   UNL     1      23.045  -0.955  54.657  1.00  0.00     0.047 A 
ATOM     10  C   UNL     1      21.713  -0.990  54.278  1.00  0.00     0.126 A 
ATOM     11  C   UNL     1      21.276  -0.257  53.167  1.00  0.00     0.064 A 
ATOM     12  C   UNL     1      24.505   1.378  52.025  1.00  0.00    -0.011 A 
ATOM     13  C   UNL     1      25.884   1.098  52.000  1.00  0.00     0.013 A 
ATOM     14  C   UNL     1      26.780   1.912  51.310  1.00  0.00     0.047 A 
ATOM     15  C   UNL     1      26.315   3.030  50.635  1.00  0.00     0.126 A 
ATOM     16  C   UNL     1      24.946   3.330  50.619  1.00  0.00     0.066 A 
ATOM     17  C   UNL     1      24.029   2.490  51.286  1.00  0.00     0.007 A 
ATOM     18  C   UNL     1      22.525   2.755  51.247  1.00  0.00     0.101 C 
ATOM     19  C   UNL     1      22.168   3.632  50.035  1.00  0.00     0.049 C 
ATOM     20  C   UNL     1      23.017   4.891  49.973  1.00  0.00     0.084 C 
ATOM     21  C   UNL     1      24.477   4.548  49.911  1.00  0.00     0.167 C 
ATOM     22  O   UNL     1      25.291   5.274  49.339  1.00  0.00    -0.294 OA
ENDROOT
BRANCH   4  23
ATOM     23  O   UNL     1      19.815   2.002  49.886  1.00  0.00    -0.392 OA
ATOM     24  H   UNL     1      18.909   2.357  49.950  1.00  0.00     0.210 HD
ENDBRANCH   4  23
BRANCH  10  25
ATOM     25  O   UNL     1      20.889  -1.767  55.044  1.00  0.00    -0.507 OA
ATOM     26  H   UNL     1      20.079  -1.248  55.249  1.00  0.00     0.293 HD
ENDBRANCH  10  25
BRANCH  18  27
ATOM     27  O   UNL     1      22.160   3.501  52.419  1.00  0.00    -0.384 OA
ATOM     28  H   UNL     1      21.494   4.167  52.171  1.00  0.00     0.211 HD
ENDBRANCH  18  27
BRANCH  15  29
ATOM     29  O   UNL     1      27.264   3.789  50.005  1.00  0.00    -0.507 OA
ATOM     30  H   UNL     1      27.229   4.698  50.383  1.00  0.00     0.293 HD
ENDBRANCH  15  29
TORSDOF 4
ENDMDL
MODEL 3
REMARK VINA RESULT:    -9.198      1.597      2.603
REMARK INTER + INTRA:         -10.274
REMARK INTER:                 -10.274
REMARK INTRA:                   0.000
REMARK UNBOUND:                 0.000
REMARK SMILES O=C1C[C@H](O)[C@@H]2c3c(ccc(O)c31)-c1ccc(O)c3c1[C@@]2(O)CCC3=O
REMARK SMILES IDX 1 1 2 2 3 3 4 4 6 5 7 6 8 7 9 8 10 9 11 10 13 11 14 12 15 13
REMARK SMILES IDX 16 14 17 15 19 16 20 17 21 18 23 19 24 20 25 21 26 22 5 23
REMARK SMILES IDX 12 25 22 27 18 29
REMARK H PARENT 5 24 12 26 22 28 18 30
ROOT
ATOM      1  O   UNL     1      22.442   5.562  49.398  1.00  0.00    -0.294 OA
ATOM      2  C   UNL     1      22.483   4.779  50.347  1.00  0.00     0.169 C 
ATOM      3  C   UNL     1      21.367   4.671  51.337  1.00  0.00     0.113 C 
ATOM      4  C   UNL     1      21.177   3.236  51.797  1.00  0.00     0.133 C 
ATOM      5  C   UNL     1      22.466   2.659  52.427  1.00  0.00     0.086 C 
ATOM      6  C   UNL     1      23.707   2.983  51.591  1.00  0.00    -0.017 A 
ATOM      7  C   UNL     1      24.899   2.266  51.859  1.00  0.00    -0.013 A 
ATOM      8  C   UNL     1      26.031   2.526  51.064  1.00  0.00     0.013 A 
ATOM      9  C   UNL     1      26.005   3.486  50.052  1.00  0.00     0.047 A 
ATOM     10  C   UNL     1      24.846   4.207  49.818  1.00  0.00     0.126 A 
ATOM     11  C   UNL     1      23.699   3.970  50.586  1.00  0.00     0.064 A 
ATOM     12  C   UNL     1      24.910   1.234  52.921  1.00  0.00    -0.011 A 
ATOM     13  C   UNL     1      26.100   0.832  53.557  1.00  0.00     0.013 A 
ATOM     14  C   UNL     1      26.106  -0.174  54.520  1.00  0.00     0.047 A 
ATOM     15  C   UNL     1      24.921  -0.807  54.863  1.00  0.00     0.126 A 
ATOM     16  C   UNL     1      23.714  -0.421  54.267  1.00  0.00     0.066 A 
ATOM     17  C   UNL     1      23.694   0.622  53.316  1.00  0.00     0.007 A 
ATOM     18  C   UNL     1      22.390   1.106  52.685  1.00  0.00     0.101 C 
ATOM     19  C   UNL     1      21.193   0.723  53.570  1.00  0.00     0.049 C 
ATOM     20  C   UNL     1      21.194  -0.755  53.924  1.00  0.00     0.084 C 
ATOM     21  C   UNL     1      22.462  -1.133  54.631  1.00  0.00     0.167 C 
ATOM     22  O   UNL     1      22.497  -2.045  55.458  1.00  0.00    -0.294 OA
ENDROOT
BRANCH   4  23
ATOM     23  O   UNL     1      20.134   3.266  52.776  1.00  0.00    -0.392 OA
ATOM     24  H   UNL     1      20.416   3.864  53.494  1.00  0.00     0.210 HD
ENDBRANCH   4  23
BRANCH  10  25
ATOM     25  O   UNL     1      24.907   5.136  48.815  1.00  0.00    -0.507 OA
ATOM     26  H   UNL     1      24.202   4.929  48.160  1.00  0.00     0.293 HD
ENDBRANCH  10  25
BRANCH  18  27
ATOM     27  O   UNL     1      22.209   0.430  51.430  1.00  0.00    -0.384 OA
ATOM     28  H   UNL     1      21.278   0.154  51.355  1.00  0.00     0.211 HD
ENDBRANCH  18  27
BRANCH  15  29
ATOM     29  O   UNL     1      25.021  -1.802  55.798  1.00  0.00    -0.507 OA
ATOM     30  H   UNL     1      24.263  -2.418  55.672  1.00  0.00     0.293 HD
ENDBRANCH  15  29
TORSDOF 4
ENDMDL
MODEL 4
REMARK VINA RESULT:    -9.091      1.917      5.969
REMARK INTER + INTRA:         -10.154
REMARK INTER:                 -10.154
REMARK INTRA:                   0.000
REMARK UNBOUND:                 0.000
REMARK SMILES O=C1C[C@H](O)[C@@H]2c3c(ccc(O)c31)-c1ccc(O)c3c1[C@@]2(O)CCC3=O
REMARK SMILES IDX 1 1 2 2 3 3 4 4 6 5 7 6 8 7 9 8 10 9 11 10 13 11 14 12 15 13
REMARK SMILES IDX 16 14 17 15 19 16 20 17 21 18 23 19 24 20 25 21 26 22 5 23
REMARK SMILES IDX 12 25 22 27 18 29
REMARK H PARENT 5 24 12 26 22 28 18 30
ROOT
ATOM      1  O   UNL     1      23.221  -1.082  54.437  1.00  0.00    -0.294 OA
ATOM      2  C   UNL     1      23.213  -0.176  53.605  1.00  0.00     0.169 C 
ATOM      3  C   UNL     1      21.940   0.378  53.046  1.00  0.00     0.113 C 
ATOM      4  C   UNL     1      22.047   1.875  52.811  1.00  0.00     0.133 C 
ATOM      5  C   UNL     1      23.211   2.224  51.855  1.00  0.00     0.086 C 
ATOM      6  C   UNL     1      24.491   1.462  52.207  1.00  0.00    -0.017 A 
ATOM      7  C   UNL     1      25.711   1.904  51.637  1.00  0.00    -0.013 A 
ATOM      8  C   UNL     1      26.898   1.237  51.993  1.00  0.00     0.013 A 
ATOM      9  C   UNL     1      26.888   0.147  52.862  1.00  0.00     0.047 A 
ATOM     10  C   UNL     1      25.689  -0.301  53.390  1.00  0.00     0.126 A 
ATOM     11  C   UNL     1      24.488   0.343  53.062  1.00  0.00     0.064 A 
ATOM     12  C   UNL     1      25.714   3.076  50.731  1.00  0.00    -0.011 A 
ATOM     13  C   UNL     1      26.735   3.284  49.785  1.00  0.00     0.013 A 
ATOM     14  C   UNL     1      26.754   4.415  48.972  1.00  0.00     0.047 A 
ATOM     15  C   UNL     1      25.755   5.369  49.094  1.00  0.00     0.126 A 
ATOM     16  C   UNL     1      24.711   5.187  50.011  1.00  0.00     0.066 A 
ATOM     17  C   UNL     1      24.665   4.027  50.813  1.00  0.00     0.007 A 
ATOM     18  C   UNL     1      23.515   3.769  51.784  1.00  0.00     0.101 C 
ATOM     19  C   UNL     1      22.277   4.585  51.376  1.00  0.00     0.049 C 
ATOM     20  C   UNL     1      22.603   6.057  51.183  1.00  0.00     0.084 C 
ATOM     21  C   UNL     1      23.668   6.236  50.142  1.00  0.00     0.167 C 
ATOM     22  O   UNL     1      23.725   7.246  49.439  1.00  0.00    -0.294 OA
ENDROOT
BRANCH   4  23
ATOM     23  O   UNL     1      20.805   2.276  52.225  1.00  0.00    -0.392 OA
ATOM     24  H   UNL     1      20.953   3.123  51.764  1.00  0.00     0.210 HD
ENDBRANCH   4  23
BRANCH  10  25
ATOM     25  O   UNL     1      25.764  -1.381  54.226  1.00  0.00    -0.507 OA
ATOM     26  H   UNL     1      26.273  -2.089  53.770  1.00  0.00     0.293 HD
ENDBRANCH  10  25
BRANCH  18  27
ATOM     27  O   UNL     1      23.903   4.232  53.088  1.00  0.00    -0.384 OA
ATOM     28  H   UNL     1      24.875   4.243  53.139  1.00  0.00     0.211 HD
ENDBRANCH  18  27
BRANCH  15  29
ATOM     29  O   UNL     1      25.865   6.461  48.277  1.00  0.00    -0.507 OA
ATOM     30  H   UNL     1      26.311   6.178  47.446  1.00  0.00     0.293 HD
ENDBRANCH  15  29
TORSDOF 4
ENDMDL
MODEL 5
REMARK VINA RESULT:    -9.079      1.465      5.754
REMARK INTER + INTRA:         -10.141
REMARK INTER:                 -10.141
REMARK INTRA:                   0.000
REMARK UNBOUND:                 0.000
REMARK SMILES O=C1C[C@H](O)[C@@H]2c3c(ccc(O)c31)-c1ccc(O)c3c1[C@@]2(O)CCC3=O
REMARK SMILES IDX 1 1 2 2 3 3 4 4 6 5 7 6 8 7 9 8 10 9 11 10 13 11 14 12 15 13
REMARK SMILES IDX 16 14 17 15 19 16 20 17 21 18 23 19 24 20 25 21 26 22 5 23
REMARK SMILES IDX 12 25 22 27 18 29
REMARK H PARENT 5 24 12 26 22 28 18 30
ROOT
ATOM      1  O   UNL     1      17.939   0.133  51.660  1.00  0.00    -0.294 OA
ATOM      2  C   UNL     1      19.139   0.295  51.443  1.00  0.00     0.169 C 
ATOM      3  C   UNL     1      19.645   0.839  50.145  1.00  0.00     0.113 C 
ATOM      4  C   UNL     1      20.857   1.731  50.357  1.00  0.00     0.133 C 
ATOM      5  C   UNL     1      22.005   0.980  51.070  1.00  0.00     0.086 C 
ATOM      6  C   UNL     1      21.502   0.162  52.262  1.00  0.00    -0.017 A 
ATOM      7  C   UNL     1      22.455  -0.316  53.195  1.00  0.00    -0.013 A 
ATOM      8  C   UNL     1      21.995  -1.029  54.318  1.00  0.00     0.013 A 
ATOM      9  C   UNL     1      20.640  -1.293  54.508  1.00  0.00     0.047 A 
ATOM     10  C   UNL     1      19.716  -0.851  53.575  1.00  0.00     0.126 A 
ATOM     11  C   UNL     1      20.137  -0.134  52.448  1.00  0.00     0.064 A 
ATOM     12  C   UNL     1      23.891  -0.012  52.996  1.00  0.00    -0.011 A 
ATOM     13  C   UNL     1      24.906  -0.805  53.564  1.00  0.00     0.013 A 
ATOM     14  C   UNL     1      26.253  -0.482  53.411  1.00  0.00     0.047 A 
ATOM     15  C   UNL     1      26.613   0.647  52.693  1.00  0.00     0.126 A 
ATOM     16  C   UNL     1      25.633   1.450  52.095  1.00  0.00     0.066 A 
ATOM     17  C   UNL     1      24.268   1.109  52.215  1.00  0.00     0.007 A 
ATOM     18  C   UNL     1      23.175   1.929  51.533  1.00  0.00     0.101 C 
ATOM     19  C   UNL     1      23.763   2.737  50.364  1.00  0.00     0.049 C 
ATOM     20  C   UNL     1      24.972   3.554  50.787  1.00  0.00     0.084 C 
ATOM     21  C   UNL     1      26.044   2.669  51.353  1.00  0.00     0.167 C 
ATOM     22  O   UNL     1      27.238   2.955  51.262  1.00  0.00    -0.294 OA
ENDROOT
BRANCH   4  23
ATOM     23  O   UNL     1      21.284   2.139  49.054  1.00  0.00    -0.392 OA
ATOM     24  H   UNL     1      21.098   1.407  48.436  1.00  0.00     0.210 HD
ENDBRANCH   4  23
BRANCH  10  25
ATOM     25  O   UNL     1      18.407  -1.160  53.830  1.00  0.00    -0.507 OA
ATOM     26  H   UNL     1      18.369  -2.082  54.172  1.00  0.00     0.293 HD
ENDBRANCH  10  25
BRANCH  18  27
ATOM     27  O   UNL     1      22.660   2.883  52.477  1.00  0.00    -0.384 OA
ATOM     28  H   UNL     1      22.182   2.403  53.176  1.00  0.00     0.211 HD
ENDBRANCH  18  27
BRANCH  15  29
ATOM     29  O   UNL     1      27.955   0.905  52.614  1.00  0.00    -0.507 OA
ATOM     30  H   UNL     1      28.316   0.933  53.530  1.00  0.00     0.293 HD
ENDBRANCH  15  29
TORSDOF 4
ENDMDL
MODEL 6
REMARK VINA RESULT:    -8.867      2.562      5.132
REMARK INTER + INTRA:          -9.904
REMARK INTER:                  -9.904
REMARK INTRA:                   0.000
REMARK UNBOUND:                 0.000
REMARK SMILES O=C1C[C@H](O)[C@@H]2c3c(ccc(O)c31)-c1ccc(O)c3c1[C@@]2(O)CCC3=O
REMARK SMILES IDX 1 1 2 2 3 3 4 4 6 5 7 6 8 7 9 8 10 9 11 10 13 11 14 12 15 13
REMARK SMILES IDX 16 14 17 15 19 16 20 17 21 18 23 19 24 20 25 21 26 22 5 23
REMARK SMILES IDX 12 25 22 27 18 29
REMARK H PARENT 5 24 12 26 22 28 18 30
ROOT
ATOM      1  O   UNL     1      23.812  -1.289  55.722  1.00  0.00    -0.294 OA
ATOM      2  C   UNL     1      23.050  -1.086  54.777  1.00  0.00     0.169 C 
ATOM      3  C   UNL     1      21.739  -1.795  54.647  1.00  0.00     0.113 C 
ATOM      4  C   UNL     1      20.676  -0.883  54.057  1.00  0.00     0.133 C 
ATOM      5  C   UNL     1      21.093  -0.336  52.672  1.00  0.00     0.086 C 
ATOM      6  C   UNL     1      22.542   0.155  52.662  1.00  0.00    -0.017 A 
ATOM      7  C   UNL     1      22.966   0.965  51.579  1.00  0.00    -0.013 A 
ATOM      8  C   UNL     1      24.284   1.458  51.587  1.00  0.00     0.013 A 
ATOM      9  C   UNL     1      25.174   1.143  52.613  1.00  0.00     0.047 A 
ATOM     10  C   UNL     1      24.763   0.324  53.652  1.00  0.00     0.126 A 
ATOM     11  C   UNL     1      23.457  -0.180  53.680  1.00  0.00     0.064 A 
ATOM     12  C   UNL     1      22.008   1.312  50.505  1.00  0.00    -0.011 A 
ATOM     13  C   UNL     1      22.435   1.682  49.216  1.00  0.00     0.013 A 
ATOM     14  C   UNL     1      21.527   2.054  48.227  1.00  0.00     0.047 A 
ATOM     15  C   UNL     1      20.170   2.071  48.509  1.00  0.00     0.126 A 
ATOM     16  C   UNL     1      19.704   1.689  49.774  1.00  0.00     0.066 A 
ATOM     17  C   UNL     1      20.615   1.277  50.770  1.00  0.00     0.007 A 
ATOM     18  C   UNL     1      20.142   0.803  52.143  1.00  0.00     0.101 C 
ATOM     19  C   UNL     1      18.674   0.349  52.075  1.00  0.00     0.049 C 
ATOM     20  C   UNL     1      17.779   1.403  51.444  1.00  0.00     0.084 C 
ATOM     21  C   UNL     1      18.248   1.742  50.059  1.00  0.00     0.167 C 
ATOM     22  O   UNL     1      17.466   2.110  49.181  1.00  0.00    -0.294 OA
ENDROOT
BRANCH   4  23
ATOM     23  O   UNL     1      19.495  -1.680  53.926  1.00  0.00    -0.392 OA
ATOM     24  H   UNL     1      18.817  -1.137  53.483  1.00  0.00     0.210 HD
ENDBRANCH   4  23
BRANCH  10  25
ATOM     25  O   UNL     1      25.699   0.055  54.613  1.00  0.00    -0.507 OA
ATOM     26  H   UNL     1      26.156   0.896  54.843  1.00  0.00     0.293 HD
ENDBRANCH  10  25
BRANCH  18  27
ATOM     27  O   UNL     1      20.188   1.914  53.053  1.00  0.00    -0.384 OA
ATOM     28  H   UNL     1      21.011   2.412  52.897  1.00  0.00     0.211 HD
ENDBRANCH  18  27
BRANCH  15  29
ATOM     29  O   UNL     1      19.350   2.474  47.489  1.00  0.00    -0.507 OA
ATOM     30  H   UNL     1      18.447   2.122  47.665  1.00  0.00     0.293 HD
ENDBRANCH  15  29
TORSDOF 4
ENDMDL
MODEL 7
REMARK VINA RESULT:    -8.808      2.138      4.684
REMARK INTER + INTRA:          -9.838
REMARK INTER:                  -9.838
REMARK INTRA:                   0.000
REMARK UNBOUND:                 0.000
REMARK SMILES O=C1C[C@H](O)[C@@H]2c3c(ccc(O)c31)-c1ccc(O)c3c1[C@@]2(O)CCC3=O
REMARK SMILES IDX 1 1 2 2 3 3 4 4 6 5 7 6 8 7 9 8 10 9 11 10 13 11 14 12 15 13
REMARK SMILES IDX 16 14 17 15 19 16 20 17 21 18 23 19 24 20 25 21 26 22 5 23
REMARK SMILES IDX 12 25 22 27 18 29
REMARK H PARENT 5 24 12 26 22 28 18 30
ROOT
ATOM      1  O   UNL     1      21.580   5.158  48.928  1.00  0.00    -0.294 OA
ATOM      2  C   UNL     1      22.255   4.308  49.509  1.00  0.00     0.169 C 
ATOM      3  C   UNL     1      23.638   3.951  49.064  1.00  0.00     0.113 C 
ATOM      4  C   UNL     1      24.537   3.650  50.250  1.00  0.00     0.133 C 
ATOM      5  C   UNL     1      23.976   2.501  51.120  1.00  0.00     0.086 C 
ATOM      6  C   UNL     1      22.477   2.661  51.382  1.00  0.00    -0.017 A 
ATOM      7  C   UNL     1      21.891   1.880  52.409  1.00  0.00    -0.013 A 
ATOM      8  C   UNL     1      20.522   2.056  52.687  1.00  0.00     0.013 A 
ATOM      9  C   UNL     1      19.740   2.951  51.958  1.00  0.00     0.047 A 
ATOM     10  C   UNL     1      20.311   3.687  50.933  1.00  0.00     0.126 A 
ATOM     11  C   UNL     1      21.672   3.542  50.633  1.00  0.00     0.064 A 
ATOM     12  C   UNL     1      22.734   0.948  53.192  1.00  0.00    -0.011 A 
ATOM     13  C   UNL     1      22.190  -0.163  53.865  1.00  0.00     0.013 A 
ATOM     14  C   UNL     1      22.985  -1.006  54.639  1.00  0.00     0.047 A 
ATOM     15  C   UNL     1      24.342  -0.751  54.763  1.00  0.00     0.126 A 
ATOM     16  C   UNL     1      24.924   0.333  54.091  1.00  0.00     0.066 A 
ATOM     17  C   UNL     1      24.131   1.170  53.277  1.00  0.00     0.007 A 
ATOM     18  C   UNL     1      24.739   2.328  52.488  1.00  0.00     0.101 C 
ATOM     19  C   UNL     1      26.247   2.105  52.286  1.00  0.00     0.049 C 
ATOM     20  C   UNL     1      26.960   1.810  53.596  1.00  0.00     0.084 C 
ATOM     21  C   UNL     1      26.375   0.600  54.262  1.00  0.00     0.167 C 
ATOM     22  O   UNL     1      27.051  -0.136  54.981  1.00  0.00    -0.294 OA
ENDROOT
BRANCH   4  23
ATOM     23  O   UNL     1      25.803   3.267  49.703  1.00  0.00    -0.392 OA
ATOM     24  H   UNL     1      26.099   2.464  50.172  1.00  0.00     0.210 HD
ENDBRANCH   4  23
BRANCH  10  25
ATOM     25  O   UNL     1      19.474   4.535  50.261  1.00  0.00    -0.507 OA
ATOM     26  H   UNL     1      19.457   4.265  49.315  1.00  0.00     0.293 HD
ENDBRANCH  10  25
BRANCH  18  27
ATOM     27  O   UNL     1      24.600   3.532  53.259  1.00  0.00    -0.384 OA
ATOM     28  H   UNL     1      24.032   3.347  54.029  1.00  0.00     0.211 HD
ENDBRANCH  18  27
BRANCH  15  29
ATOM     29  O   UNL     1      25.044  -1.612  55.562  1.00  0.00    -0.507 OA
ATOM     30  H   UNL     1      26.000  -1.389  55.487  1.00  0.00     0.293 HD
ENDBRANCH  15  29
TORSDOF 4
ENDMDL
MODEL 8
REMARK VINA RESULT:    -8.759      2.216      6.676
REMARK INTER + INTRA:          -9.783
REMARK INTER:                  -9.783
REMARK INTRA:                   0.000
REMARK UNBOUND:                 0.000
REMARK SMILES O=C1C[C@H](O)[C@@H]2c3c(ccc(O)c31)-c1ccc(O)c3c1[C@@]2(O)CCC3=O
REMARK SMILES IDX 1 1 2 2 3 3 4 4 6 5 7 6 8 7 9 8 10 9 11 10 13 11 14 12 15 13
REMARK SMILES IDX 16 14 17 15 19 16 20 17 21 18 23 19 24 20 25 21 26 22 5 23
REMARK SMILES IDX 12 25 22 27 18 29
REMARK H PARENT 5 24 12 26 22 28 18 30
ROOT
ATOM      1  O   UNL     1      22.192   0.587  53.134  1.00  0.00    -0.294 OA
ATOM      2  C   UNL     1      22.476   1.535  52.403  1.00  0.00     0.169 C 
ATOM      3  C   UNL     1      21.431   2.444  51.838  1.00  0.00     0.113 C 
ATOM      4  C   UNL     1      21.926   3.878  51.769  1.00  0.00     0.133 C 
ATOM      5  C   UNL     1      23.213   4.002  50.920  1.00  0.00     0.086 C 
ATOM      6  C   UNL     1      24.230   2.909  51.259  1.00  0.00    -0.017 A 
ATOM      7  C   UNL     1      25.563   3.073  50.807  1.00  0.00    -0.013 A 
ATOM      8  C   UNL     1      26.514   2.095  51.154  1.00  0.00     0.013 A 
ATOM      9  C   UNL     1      26.163   0.971  51.900  1.00  0.00     0.047 A 
ATOM     10  C   UNL     1      24.852   0.800  52.312  1.00  0.00     0.126 A 
ATOM     11  C   UNL     1      23.880   1.756  51.989  1.00  0.00     0.064 A 
ATOM     12  C   UNL     1      25.931   4.281  50.032  1.00  0.00    -0.011 A 
ATOM     13  C   UNL     1      27.043   4.304  49.170  1.00  0.00     0.013 A 
ATOM     14  C   UNL     1      27.408   5.460  48.485  1.00  0.00     0.047 A 
ATOM     15  C   UNL     1      26.672   6.623  48.653  1.00  0.00     0.126 A 
ATOM     16  C   UNL     1      25.546   6.634  49.487  1.00  0.00     0.066 A 
ATOM     17  C   UNL     1      25.149   5.457  50.157  1.00  0.00     0.007 A 
ATOM     18  C   UNL     1      23.896   5.417  51.031  1.00  0.00     0.101 C 
ATOM     19  C   UNL     1      22.938   6.556  50.645  1.00  0.00     0.049 C 
ATOM     20  C   UNL     1      23.634   7.906  50.628  1.00  0.00     0.084 C 
ATOM     21  C   UNL     1      24.790   7.899  49.671  1.00  0.00     0.167 C 
ATOM     22  O   UNL     1      25.154   8.919  49.084  1.00  0.00    -0.294 OA
ENDROOT
BRANCH   4  23
ATOM     23  O   UNL     1      20.874   4.635  51.162  1.00  0.00    -0.392 OA
ATOM     24  H   UNL     1      20.340   5.029  51.877  1.00  0.00     0.210 HD
ENDBRANCH   4  23
BRANCH  10  25
ATOM     25  O   UNL     1      24.589  -0.333  53.031  1.00  0.00    -0.507 OA
ATOM     26  H   UNL     1      24.554  -0.093  53.984  1.00  0.00     0.293 HD
ENDBRANCH  10  25
BRANCH  18  27
ATOM     27  O   UNL     1      24.282   5.647  52.396  1.00  0.00    -0.384 OA
ATOM     28  H   UNL     1      24.800   6.471  52.440  1.00  0.00     0.211 HD
ENDBRANCH  18  27
BRANCH  15  29
ATOM     29  O   UNL     1      27.116   7.719  47.964  1.00  0.00    -0.507 OA
ATOM     30  H   UNL     1      26.477   7.902  47.236  1.00  0.00     0.293 HD
ENDBRANCH  15  29
TORSDOF 4
ENDMDL
MODEL 9
REMARK VINA RESULT:    -8.641      1.990      6.126
REMARK INTER + INTRA:          -9.651
REMARK INTER:                  -9.651
REMARK INTRA:                   0.000
REMARK UNBOUND:                 0.000
REMARK SMILES O=C1C[C@H](O)[C@@H]2c3c(ccc(O)c31)-c1ccc(O)c3c1[C@@]2(O)CCC3=O
REMARK SMILES IDX 1 1 2 2 3 3 4 4 6 5 7 6 8 7 9 8 10 9 11 10 13 11 14 12 15 13
REMARK SMILES IDX 16 14 17 15 19 16 20 17 21 18 23 19 24 20 25 21 26 22 5 23
REMARK SMILES IDX 12 25 22 27 18 29
REMARK H PARENT 5 24 12 26 22 28 18 30
ROOT
ATOM      1  O   UNL     1      18.262  -0.465  52.085  1.00  0.00    -0.294 OA
ATOM      2  C   UNL     1      19.381  -0.124  52.465  1.00  0.00     0.169 C 
ATOM      3  C   UNL     1      19.800  -0.229  53.897  1.00  0.00     0.113 C 
ATOM      4  C   UNL     1      21.264  -0.616  54.015  1.00  0.00     0.133 C 
ATOM      5  C   UNL     1      22.185   0.396  53.294  1.00  0.00     0.086 C 
ATOM      6  C   UNL     1      21.654   0.768  51.908  1.00  0.00    -0.017 A 
ATOM      7  C   UNL     1      22.532   1.423  51.009  1.00  0.00    -0.013 A 
ATOM      8  C   UNL     1      22.064   1.727  49.717  1.00  0.00     0.013 A 
ATOM      9  C   UNL     1      20.760   1.425  49.324  1.00  0.00     0.047 A 
ATOM     10  C   UNL     1      19.897   0.814  50.219  1.00  0.00     0.126 A 
ATOM     11  C   UNL     1      20.331   0.492  51.511  1.00  0.00     0.064 A 
ATOM     12  C   UNL     1      23.921   1.721  51.428  1.00  0.00    -0.011 A 
ATOM     13  C   UNL     1      24.678   2.743  50.824  1.00  0.00     0.013 A 
ATOM     14  C   UNL     1      26.000   2.982  51.192  1.00  0.00     0.047 A 
ATOM     15  C   UNL     1      26.597   2.199  52.168  1.00  0.00     0.126 A 
ATOM     16  C   UNL     1      25.869   1.186  52.806  1.00  0.00     0.066 A 
ATOM     17  C   UNL     1      24.518   0.961  52.464  1.00  0.00     0.007 A 
ATOM     18  C   UNL     1      23.677  -0.098  53.176  1.00  0.00     0.101 C 
ATOM     19  C   UNL     1      24.288  -0.433  54.547  1.00  0.00     0.049 C 
ATOM     20  C   UNL     1      25.763  -0.784  54.444  1.00  0.00     0.084 C 
ATOM     21  C   UNL     1      26.539   0.343  53.829  1.00  0.00     0.167 C 
ATOM     22  O   UNL     1      27.719   0.549  54.112  1.00  0.00    -0.294 OA
ENDROOT
BRANCH   4  23
ATOM     23  O   UNL     1      21.562  -0.627  55.415  1.00  0.00    -0.392 OA
ATOM     24  H   UNL     1      22.135   0.140  55.603  1.00  0.00     0.210 HD
ENDBRANCH   4  23
BRANCH  10  25
ATOM     25  O   UNL     1      18.634   0.560  49.759  1.00  0.00    -0.507 OA
ATOM     26  H   UNL     1      18.618   0.731  48.790  1.00  0.00     0.293 HD
ENDBRANCH  10  25
BRANCH  18  27
ATOM     27  O   UNL     1      23.712  -1.308  52.401  1.00  0.00    -0.384 OA
ATOM     28  H   UNL     1      23.920  -1.082  51.477  1.00  0.00     0.211 HD
ENDBRANCH  18  27
BRANCH  15  29
ATOM     29  O   UNL     1      27.905   2.484  52.450  1.00  0.00    -0.507 OA
ATOM     30  H   UNL     1      28.247   3.081  51.745  1.00  0.00     0.293 HD
ENDBRANCH  15  29
TORSDOF 4
ENDMDL
