MODEL 1
REMARK VINA RESULT:    -8.005      0.000      0.000
REMARK INTER + INTRA:         -17.294
REMARK INTER:                 -13.621
REMARK INTRA:                  -3.673
REMARK UNBOUND:                -3.673
REMARK SMILES CC(C)(C)c1ccc(OC[C@@H](Cn2ccnc2[N+](=O)[O-])OC(=O)c2ccc(NC=C3C(=O)C=CC3=O)cc2)cc1
REMARK SMILES IDX 11 1 10 2 9 3 8 4 5 5 6 6 40 7 7 8 39 9 2 10 1 11 3 12 4 13
REMARK SMILES IDX 12 14 13 15 14 16 17 17 15 18 16 19 18 20 19 21 20 22 21 23
REMARK SMILES IDX 22 24 23 25 24 26 25 27 38 28 26 29 37 30 27 31 28 32 29 34
REMARK SMILES IDX 30 35 31 36 35 37 32 38 33 39 34 40 36 41
REMARK H PARENT 28 33
ROOT
ATOM      1  C   UNL     1      17.178   1.560  51.504  1.00  0.00     0.248 C 
ENDROOT
BRANCH   1   2
ATOM      2  C   UNL     1      17.798   2.765  50.777  1.00  0.00     0.278 C 
BRANCH   2   3
ATOM      3  O   UNL     1      18.574   3.520  51.707  1.00  0.00    -0.490 OA
BRANCH   3   4
ATOM      4  C   UNL     1      19.919   3.591  51.482  1.00  0.00     0.119 A 
ATOM      5  C   UNL     1      22.660   3.707  50.733  1.00  0.00    -0.042 A 
ATOM      6  C   UNL     1      22.260   3.805  52.076  1.00  0.00     0.008 A 
ATOM      7  C   UNL     1      21.642   3.553  49.775  1.00  0.00     0.008 A 
ATOM      8  C   UNL     1      20.908   3.749  52.447  1.00  0.00     0.047 A 
ATOM      9  C   UNL     1      20.294   3.498  50.144  1.00  0.00     0.047 A 
BRANCH   5  10
ATOM     10  C   UNL     1      24.134   3.761  50.296  1.00  0.00    -0.013 C 
ATOM     11  C   UNL     1      24.735   5.184  50.296  1.00  0.00     0.016 C 
ATOM     12  C   UNL     1      24.987   2.903  51.255  1.00  0.00     0.016 C 
ATOM     13  C   UNL     1      24.274   3.208  48.860  1.00  0.00     0.016 C 
ENDBRANCH   5  10
ENDBRANCH   3   4
ENDBRANCH   2   3
ENDBRANCH   1   2
BRANCH   1  14
ATOM     14  C   UNL     1      15.752   1.302  50.993  1.00  0.00     0.254 C 
BRANCH  14  15
ATOM     15  N   UNL     1      14.787   1.184  52.075  1.00  0.00    -0.225 N 
ATOM     16  C   UNL     1      14.319  -0.024  52.543  1.00  0.00     0.204 A 
ATOM     17  C   UNL     1      14.145   2.156  52.798  1.00  0.00     0.434 A 
ATOM     18  C   UNL     1      13.398   0.289  53.517  1.00  0.00     0.245 A 
ATOM     19  N   UNL     1      13.293   1.645  53.668  1.00  0.00    -0.074 NA
BRANCH  17  20
ATOM     20  N   UNL     1      14.339   3.572  52.647  1.00  0.00    -0.047 N 
ATOM     21  O   UNL     1      15.336   4.070  53.187  1.00  0.00    -0.390 OA
ATOM     22  O   UNL     1      13.497   4.200  51.990  1.00  0.00    -0.390 OA
ENDBRANCH  17  20
ENDBRANCH  14  15
ENDBRANCH   1  14
BRANCH   1  23
ATOM     23  O   UNL     1      17.977   0.381  51.255  1.00  0.00    -0.452 OA
BRANCH  23  24
ATOM     24  C   UNL     1      18.376  -0.299  52.361  1.00  0.00     0.338 C 
ATOM     25  O   UNL     1      17.647  -0.963  53.079  1.00  0.00    -0.246 OA
BRANCH  24  26
ATOM     26  C   UNL     1      19.836  -0.145  52.586  1.00  0.00     0.060 A 
ATOM     27  C   UNL     1      20.739   0.088  51.547  1.00  0.00     0.018 A 
ATOM     28  C   UNL     1      20.317  -0.232  53.897  1.00  0.00     0.018 A 
ATOM     29  C   UNL     1      22.107   0.215  51.822  1.00  0.00     0.027 A 
ATOM     30  C   UNL     1      21.686  -0.100  54.163  1.00  0.00     0.027 A 
ATOM     31  C   UNL     1      22.604   0.120  53.131  1.00  0.00     0.038 A 
BRANCH  31  32
ATOM     32  N   UNL     1      23.988   0.256  53.332  1.00  0.00    -0.361 N 
ATOM     33  H   UNL     1      24.293   1.165  53.690  1.00  0.00     0.166 HD
BRANCH  32  34
ATOM     34  C   UNL     1      25.001  -0.633  53.070  1.00  0.00     0.099 C 
ATOM     35  C   UNL     1      26.305  -0.454  53.300  1.00  0.00     0.085 C 
ATOM     36  C   UNL     1      27.368  -1.423  53.007  1.00  0.00     0.191 C 
ATOM     37  C   UNL     1      26.941   0.732  53.886  1.00  0.00     0.191 C 
ATOM     38  O   UNL     1      27.262  -2.530  52.521  1.00  0.00    -0.289 OA
ATOM     39  C   UNL     1      28.629  -0.781  53.428  1.00  0.00     0.057 C 
ATOM     40  C   UNL     1      28.387   0.441  53.926  1.00  0.00     0.057 C 
ATOM     41  O   UNL     1      26.407   1.753  54.268  1.00  0.00    -0.289 OA
ENDBRANCH  32  34
ENDBRANCH  31  32
ENDBRANCH  24  26
ENDBRANCH  23  24
ENDBRANCH   1  23
TORSDOF 12
ENDMDL
MODEL 2
REMARK VINA RESULT:    -7.901      2.096      3.190
REMARK INTER + INTRA:         -17.116
REMARK INTER:                 -14.471
REMARK INTRA:                  -2.645
REMARK UNBOUND:                -3.673
REMARK SMILES CC(C)(C)c1ccc(OC[C@@H](Cn2ccnc2[N+](=O)[O-])OC(=O)c2ccc(NC=C3C(=O)C=CC3=O)cc2)cc1
REMARK SMILES IDX 11 1 10 2 9 3 8 4 5 5 6 6 40 7 7 8 39 9 2 10 1 11 3 12 4 13
REMARK SMILES IDX 12 14 13 15 14 16 17 17 15 18 16 19 18 20 19 21 20 22 21 23
REMARK SMILES IDX 22 24 23 25 24 26 25 27 38 28 26 29 37 30 27 31 28 32 29 34
REMARK SMILES IDX 30 35 31 36 35 37 32 38 33 39 34 40 36 41
REMARK H PARENT 28 33
ROOT
ATOM      1  C   UNL     1      18.984   1.425  50.537  1.00  0.00     0.248 C 
ENDROOT
BRANCH   1   2
ATOM      2  C   UNL     1      20.037   1.273  49.427  1.00  0.00     0.278 C 
BRANCH   2   3
ATOM      3  O   UNL     1      20.114   2.492  48.688  1.00  0.00    -0.490 OA
BRANCH   3   4
ATOM      4  C   UNL     1      21.237   3.252  48.857  1.00  0.00     0.119 A 
ATOM      5  C   UNL     1      23.723   4.586  49.206  1.00  0.00    -0.042 A 
ATOM      6  C   UNL     1      22.512   5.295  49.134  1.00  0.00     0.008 A 
ATOM      7  C   UNL     1      23.650   3.186  49.094  1.00  0.00     0.008 A 
ATOM      8  C   UNL     1      21.285   4.638  48.960  1.00  0.00     0.047 A 
ATOM      9  C   UNL     1      22.427   2.531  48.920  1.00  0.00     0.047 A 
BRANCH   5  10
ATOM     10  C   UNL     1      25.084   5.277  49.401  1.00  0.00    -0.013 C 
ATOM     11  C   UNL     1      25.487   6.204  48.232  1.00  0.00     0.016 C 
ATOM     12  C   UNL     1      25.045   6.142  50.680  1.00  0.00     0.016 C 
ATOM     13  C   UNL     1      26.195   4.214  49.541  1.00  0.00     0.016 C 
ENDBRANCH   5  10
ENDBRANCH   3   4
ENDBRANCH   2   3
ENDBRANCH   1   2
BRANCH   1  14
ATOM     14  C   UNL     1      17.796   0.485  50.281  1.00  0.00     0.254 C 
BRANCH  14  15
ATOM     15  N   UNL     1      16.669   0.762  51.159  1.00  0.00    -0.225 N 
ATOM     16  C   UNL     1      15.916   1.912  51.083  1.00  0.00     0.204 A 
ATOM     17  C   UNL     1      16.157   0.030  52.199  1.00  0.00     0.434 A 
ATOM     18  C   UNL     1      14.995   1.819  52.101  1.00  0.00     0.245 A 
ATOM     19  N   UNL     1      15.153   0.649  52.793  1.00  0.00    -0.074 NA
BRANCH  17  20
ATOM     20  N   UNL     1      16.637  -1.254  52.630  1.00  0.00    -0.047 N 
ATOM     21  O   UNL     1      17.718  -1.286  53.231  1.00  0.00    -0.390 OA
ATOM     22  O   UNL     1      15.939  -2.245  52.368  1.00  0.00    -0.390 OA
ENDBRANCH  17  20
ENDBRANCH  14  15
ENDBRANCH   1  14
BRANCH   1  23
ATOM     23  O   UNL     1      19.573   1.087  51.813  1.00  0.00    -0.452 OA
BRANCH  23  24
ATOM     24  C   UNL     1      20.455   1.993  52.309  1.00  0.00     0.338 C 
ATOM     25  O   UNL     1      20.248   3.191  52.412  1.00  0.00    -0.246 OA
BRANCH  24  26
ATOM     26  C   UNL     1      21.719   1.335  52.730  1.00  0.00     0.060 A 
ATOM     27  C   UNL     1      21.746   0.091  53.364  1.00  0.00     0.018 A 
ATOM     28  C   UNL     1      22.925   1.993  52.472  1.00  0.00     0.018 A 
ATOM     29  C   UNL     1      22.970  -0.474  53.745  1.00  0.00     0.027 A 
ATOM     30  C   UNL     1      24.145   1.419  52.854  1.00  0.00     0.027 A 
ATOM     31  C   UNL     1      24.188   0.179  53.502  1.00  0.00     0.038 A 
BRANCH  31  32
ATOM     32  N   UNL     1      25.376  -0.446  53.914  1.00  0.00    -0.361 N 
ATOM     33  H   UNL     1      25.319  -1.460  54.037  1.00  0.00     0.166 HD
BRANCH  32  34
ATOM     34  C   UNL     1      26.593   0.108  54.228  1.00  0.00     0.099 C 
ATOM     35  C   UNL     1      27.799  -0.375  53.917  1.00  0.00     0.085 C 
ATOM     36  C   UNL     1      29.084   0.239  54.270  1.00  0.00     0.191 C 
ATOM     37  C   UNL     1      28.089  -1.603  53.168  1.00  0.00     0.191 C 
ATOM     38  O   UNL     1      29.283   1.266  54.886  1.00  0.00    -0.289 OA
ATOM     39  C   UNL     1      30.124  -0.653  53.718  1.00  0.00     0.057 C 
ATOM     40  C   UNL     1      29.560  -1.697  53.094  1.00  0.00     0.057 C 
ATOM     41  O   UNL     1      27.298  -2.394  52.697  1.00  0.00    -0.289 OA
ENDBRANCH  32  34
ENDBRANCH  31  32
ENDBRANCH  24  26
ENDBRANCH  23  24
ENDBRANCH   1  23
TORSDOF 12
ENDMDL
MODEL 3
REMARK VINA RESULT:    -7.884      4.051      6.649
REMARK INTER + INTRA:         -17.087
REMARK INTER:                 -13.119
REMARK INTRA:                  -3.968
REMARK UNBOUND:                -3.673
REMARK SMILES CC(C)(C)c1ccc(OC[C@@H](Cn2ccnc2[N+](=O)[O-])OC(=O)c2ccc(NC=C3C(=O)C=CC3=O)cc2)cc1
REMARK SMILES IDX 11 1 10 2 9 3 8 4 5 5 6 6 40 7 7 8 39 9 2 10 1 11 3 12 4 13
REMARK SMILES IDX 12 14 13 15 14 16 17 17 15 18 16 19 18 20 19 21 20 22 21 23
REMARK SMILES IDX 22 24 23 25 24 26 25 27 38 28 26 29 37 30 27 31 28 32 29 34
REMARK SMILES IDX 30 35 31 36 35 37 32 38 33 39 34 40 36 41
REMARK H PARENT 28 33
ROOT
ATOM      1  C   UNL     1      22.335   4.785  48.502  1.00  0.00     0.248 C 
ENDROOT
BRANCH   1   2
ATOM      2  C   UNL     1      21.513   3.487  48.508  1.00  0.00     0.278 C 
BRANCH   2   3
ATOM      3  O   UNL     1      20.700   3.456  49.682  1.00  0.00    -0.490 OA
BRANCH   3   4
ATOM      4  C   UNL     1      20.887   2.411  50.541  1.00  0.00     0.119 A 
ATOM      5  C   UNL     1      21.130   0.388  52.524  1.00  0.00    -0.042 A 
ATOM      6  C   UNL     1      21.681   0.230  51.242  1.00  0.00     0.008 A 
ATOM      7  C   UNL     1      20.450   1.592  52.782  1.00  0.00     0.008 A 
ATOM      8  C   UNL     1      21.560   1.226  50.261  1.00  0.00     0.047 A 
ATOM      9  C   UNL     1      20.329   2.585  51.805  1.00  0.00     0.047 A 
BRANCH   5  10
ATOM     10  C   UNL     1      21.250  -0.684  53.621  1.00  0.00    -0.013 C 
ATOM     11  C   UNL     1      21.549  -0.110  55.025  1.00  0.00     0.016 C 
ATOM     12  C   UNL     1      19.924  -1.469  53.721  1.00  0.00     0.016 C 
ATOM     13  C   UNL     1      22.394  -1.662  53.276  1.00  0.00     0.016 C 
ENDBRANCH   5  10
ENDBRANCH   3   4
ENDBRANCH   2   3
ENDBRANCH   1   2
BRANCH   1  14
ATOM     14  C   UNL     1      21.550   5.914  47.814  1.00  0.00     0.254 C 
BRANCH  14  15
ATOM     15  N   UNL     1      22.228   7.198  47.907  1.00  0.00    -0.225 N 
ATOM     16  C   UNL     1      23.265   7.568  47.080  1.00  0.00     0.204 A 
ATOM     17  C   UNL     1      22.039   8.237  48.782  1.00  0.00     0.434 A 
ATOM     18  C   UNL     1      23.660   8.811  47.517  1.00  0.00     0.245 A 
ATOM     19  N   UNL     1      22.897   9.219  48.577  1.00  0.00    -0.074 NA
BRANCH  17  20
ATOM     20  N   UNL     1      21.046   8.281  49.820  1.00  0.00    -0.047 N 
ATOM     21  O   UNL     1      19.909   8.655  49.504  1.00  0.00    -0.390 OA
ATOM     22  O   UNL     1      21.393   7.946  50.962  1.00  0.00    -0.390 OA
ENDBRANCH  17  20
ENDBRANCH  14  15
ENDBRANCH   1  14
BRANCH   1  23
ATOM     23  O   UNL     1      22.621   5.185  49.862  1.00  0.00    -0.452 OA
BRANCH  23  24
ATOM     24  C   UNL     1      23.929   5.143  50.221  1.00  0.00     0.338 C 
ATOM     25  O   UNL     1      24.772   5.968  49.906  1.00  0.00    -0.246 OA
BRANCH  24  26
ATOM     26  C   UNL     1      24.214   3.959  51.071  1.00  0.00     0.060 A 
ATOM     27  C   UNL     1      23.798   3.868  52.401  1.00  0.00     0.018 A 
ATOM     28  C   UNL     1      24.922   2.893  50.506  1.00  0.00     0.018 A 
ATOM     29  C   UNL     1      24.105   2.727  53.155  1.00  0.00     0.027 A 
ATOM     30  C   UNL     1      25.222   1.755  51.267  1.00  0.00     0.027 A 
ATOM     31  C   UNL     1      24.824   1.655  52.604  1.00  0.00     0.038 A 
BRANCH  31  32
ATOM     32  N   UNL     1      25.098   0.544  53.419  1.00  0.00    -0.361 N 
ATOM     33  H   UNL     1      24.633   0.543  54.331  1.00  0.00     0.166 HD
BRANCH  32  34
ATOM     34  C   UNL     1      25.939  -0.518  53.197  1.00  0.00     0.099 C 
ATOM     35  C   UNL     1      27.267  -0.534  53.337  1.00  0.00     0.085 C 
ATOM     36  C   UNL     1      28.141  -1.686  53.089  1.00  0.00     0.191 C 
ATOM     37  C   UNL     1      28.120   0.582  53.761  1.00  0.00     0.191 C 
ATOM     38  O   UNL     1      27.830  -2.802  52.727  1.00  0.00    -0.289 OA
ATOM     39  C   UNL     1      29.514  -1.221  53.373  1.00  0.00     0.057 C 
ATOM     40  C   UNL     1      29.502   0.065  53.754  1.00  0.00     0.057 C 
ATOM     41  O   UNL     1      27.781   1.708  54.063  1.00  0.00    -0.289 OA
ENDBRANCH  32  34
ENDBRANCH  31  32
ENDBRANCH  24  26
ENDBRANCH  23  24
ENDBRANCH   1  23
TORSDOF 12
ENDMDL
MODEL 4
REMARK VINA RESULT:    -7.834      4.430      6.846
REMARK INTER + INTRA:         -17.003
REMARK INTER:                 -14.857
REMARK INTRA:                  -2.146
REMARK UNBOUND:                -3.673
REMARK SMILES CC(C)(C)c1ccc(OC[C@@H](Cn2ccnc2[N+](=O)[O-])OC(=O)c2ccc(NC=C3C(=O)C=CC3=O)cc2)cc1
REMARK SMILES IDX 11 1 10 2 9 3 8 4 5 5 6 6 40 7 7 8 39 9 2 10 1 11 3 12 4 13
REMARK SMILES IDX 12 14 13 15 14 16 17 17 15 18 16 19 18 20 19 21 20 22 21 23
REMARK SMILES IDX 22 24 23 25 24 26 25 27 38 28 26 29 37 30 27 31 28 32 29 34
REMARK SMILES IDX 30 35 31 36 35 37 32 38 33 39 34 40 36 41
REMARK H PARENT 28 33
ROOT
ATOM      1  C   UNL     1      22.369   4.582  49.431  1.00  0.00     0.248 C 
ENDROOT
BRANCH   1   2
ATOM      2  C   UNL     1      23.801   4.167  49.060  1.00  0.00     0.278 C 
BRANCH   2   3
ATOM      3  O   UNL     1      24.717   4.803  49.951  1.00  0.00    -0.490 OA
BRANCH   3   4
ATOM      4  C   UNL     1      25.892   5.252  49.420  1.00  0.00     0.119 A 
ATOM      5  C   UNL     1      28.231   6.451  48.335  1.00  0.00    -0.042 A 
ATOM      6  C   UNL     1      28.126   5.060  48.497  1.00  0.00     0.008 A 
ATOM      7  C   UNL     1      27.128   7.225  48.738  1.00  0.00     0.008 A 
ATOM      8  C   UNL     1      26.973   4.467  49.033  1.00  0.00     0.047 A 
ATOM      9  C   UNL     1      25.979   6.634  49.273  1.00  0.00     0.047 A 
BRANCH   5  10
ATOM     10  C   UNL     1      29.479   7.131  47.747  1.00  0.00    -0.013 C 
ATOM     11  C   UNL     1      30.670   6.171  47.529  1.00  0.00     0.016 C 
ATOM     12  C   UNL     1      29.131   7.748  46.374  1.00  0.00     0.016 C 
ATOM     13  C   UNL     1      29.964   8.249  48.696  1.00  0.00     0.016 C 
ENDBRANCH   5  10
ENDBRANCH   3   4
ENDBRANCH   2   3
ENDBRANCH   1   2
BRANCH   1  14
ATOM     14  C   UNL     1      21.685   5.273  48.241  1.00  0.00     0.254 C 
BRANCH  14  15
ATOM     15  N   UNL     1      22.295   6.553  47.916  1.00  0.00    -0.225 N 
ATOM     16  C   UNL     1      22.823   6.848  46.679  1.00  0.00     0.204 A 
ATOM     17  C   UNL     1      22.505   7.657  48.701  1.00  0.00     0.434 A 
ATOM     18  C   UNL     1      23.343   8.116  46.792  1.00  0.00     0.245 A 
ATOM     19  N   UNL     1      23.145   8.612  48.052  1.00  0.00    -0.074 NA
BRANCH  17  20
ATOM     20  N   UNL     1      22.102   7.792  50.075  1.00  0.00    -0.047 N 
ATOM     21  O   UNL     1      20.914   8.061  50.295  1.00  0.00    -0.390 OA
ATOM     22  O   UNL     1      22.970   7.633  50.945  1.00  0.00    -0.390 OA
ENDBRANCH  17  20
ENDBRANCH  14  15
ENDBRANCH   1  14
BRANCH   1  23
ATOM     23  O   UNL     1      21.601   3.409  49.787  1.00  0.00    -0.452 OA
BRANCH  23  24
ATOM     24  C   UNL     1      21.299   3.285  51.105  1.00  0.00     0.338 C 
ATOM     25  O   UNL     1      20.311   3.755  51.646  1.00  0.00    -0.246 OA
BRANCH  24  26
ATOM     26  C   UNL     1      22.326   2.483  51.817  1.00  0.00     0.060 A 
ATOM     27  C   UNL     1      23.399   3.065  52.496  1.00  0.00     0.018 A 
ATOM     28  C   UNL     1      22.202   1.090  51.809  1.00  0.00     0.018 A 
ATOM     29  C   UNL     1      24.342   2.254  53.142  1.00  0.00     0.027 A 
ATOM     30  C   UNL     1      23.148   0.288  52.461  1.00  0.00     0.027 A 
ATOM     31  C   UNL     1      24.235   0.855  53.133  1.00  0.00     0.038 A 
BRANCH  31  32
ATOM     32  N   UNL     1      25.218   0.106  53.801  1.00  0.00    -0.361 N 
ATOM     33  H   UNL     1      24.928  -0.826  54.108  1.00  0.00     0.166 HD
BRANCH  32  34
ATOM     34  C   UNL     1      26.499   0.457  54.151  1.00  0.00     0.099 C 
ATOM     35  C   UNL     1      27.621  -0.207  53.861  1.00  0.00     0.085 C 
ATOM     36  C   UNL     1      28.978   0.192  54.251  1.00  0.00     0.191 C 
ATOM     37  C   UNL     1      27.732  -1.459  53.102  1.00  0.00     0.191 C 
ATOM     38  O   UNL     1      29.321   1.169  54.885  1.00  0.00    -0.289 OA
ATOM     39  C   UNL     1      29.877  -0.847  53.712  1.00  0.00     0.057 C 
ATOM     40  C   UNL     1      29.171  -1.783  53.060  1.00  0.00     0.057 C 
ATOM     41  O   UNL     1      26.838  -2.110  52.602  1.00  0.00    -0.289 OA
ENDBRANCH  32  34
ENDBRANCH  31  32
ENDBRANCH  24  26
ENDBRANCH  23  24
ENDBRANCH   1  23
TORSDOF 12
ENDMDL
MODEL 5
REMARK VINA RESULT:    -7.775      4.910     10.619
REMARK INTER + INTRA:         -16.902
REMARK INTER:                 -13.535
REMARK INTRA:                  -3.367
REMARK UNBOUND:                -3.673
REMARK SMILES CC(C)(C)c1ccc(OC[C@@H](Cn2ccnc2[N+](=O)[O-])OC(=O)c2ccc(NC=C3C(=O)C=CC3=O)cc2)cc1
REMARK SMILES IDX 11 1 10 2 9 3 8 4 5 5 6 6 40 7 7 8 39 9 2 10 1 11 3 12 4 13
REMARK SMILES IDX 12 14 13 15 14 16 17 17 15 18 16 19 18 20 19 21 20 22 21 23
REMARK SMILES IDX 22 24 23 25 24 26 25 27 38 28 26 29 37 30 27 31 28 32 29 34
REMARK SMILES IDX 30 35 31 36 35 37 32 38 33 39 34 40 36 41
REMARK H PARENT 28 33
ROOT
ATOM      1  C   UNL     1      27.109   6.436  48.804  1.00  0.00     0.248 C 
ENDROOT
BRANCH   1   2
ATOM      2  C   UNL     1      27.130   4.899  48.820  1.00  0.00     0.278 C 
BRANCH   2   3
ATOM      3  O   UNL     1      25.806   4.418  49.051  1.00  0.00    -0.490 OA
BRANCH   3   4
ATOM      4  C   UNL     1      25.654   3.447  49.999  1.00  0.00     0.119 A 
ATOM      5  C   UNL     1      25.623   1.430  52.003  1.00  0.00    -0.042 A 
ATOM      6  C   UNL     1      24.439   1.886  51.401  1.00  0.00     0.008 A 
ATOM      7  C   UNL     1      26.826   2.019  51.571  1.00  0.00     0.008 A 
ATOM      8  C   UNL     1      24.452   2.883  50.413  1.00  0.00     0.047 A 
ATOM      9  C   UNL     1      26.839   3.013  50.587  1.00  0.00     0.047 A 
BRANCH   5  10
ATOM     10  C   UNL     1      25.642   0.336  53.085  1.00  0.00    -0.013 C 
ATOM     11  C   UNL     1      24.237  -0.153  53.503  1.00  0.00     0.016 C 
ATOM     12  C   UNL     1      26.418  -0.892  52.562  1.00  0.00     0.016 C 
ATOM     13  C   UNL     1      26.335   0.871  54.357  1.00  0.00     0.016 C 
ENDBRANCH   5  10
ENDBRANCH   3   4
ENDBRANCH   2   3
ENDBRANCH   1   2
BRANCH   1  14
ATOM     14  C   UNL     1      28.175   6.977  47.838  1.00  0.00     0.254 C 
BRANCH  14  15
ATOM     15  N   UNL     1      29.141   7.838  48.502  1.00  0.00    -0.225 N 
ATOM     16  C   UNL     1      28.862   9.129  48.892  1.00  0.00     0.204 A 
ATOM     17  C   UNL     1      30.451   7.607  48.836  1.00  0.00     0.434 A 
ATOM     18  C   UNL     1      30.032   9.616  49.426  1.00  0.00     0.245 A 
ATOM     19  N   UNL     1      31.016   8.665  49.386  1.00  0.00    -0.074 NA
BRANCH  17  20
ATOM     20  N   UNL     1      31.160   6.376  48.619  1.00  0.00    -0.047 N 
ATOM     21  O   UNL     1      31.261   5.976  47.452  1.00  0.00    -0.390 OA
ATOM     22  O   UNL     1      31.621   5.795  49.612  1.00  0.00    -0.390 OA
ENDBRANCH  17  20
ENDBRANCH  14  15
ENDBRANCH   1  14
BRANCH   1  23
ATOM     23  O   UNL     1      25.812   6.899  48.364  1.00  0.00    -0.452 OA
BRANCH  23  24
ATOM     24  C   UNL     1      25.124   7.651  49.261  1.00  0.00     0.338 C 
ATOM     25  O   UNL     1      25.393   8.802  49.567  1.00  0.00    -0.246 OA
BRANCH  24  26
ATOM     26  C   UNL     1      23.976   6.896  49.826  1.00  0.00     0.060 A 
ATOM     27  C   UNL     1      23.891   6.553  51.177  1.00  0.00     0.018 A 
ATOM     28  C   UNL     1      22.941   6.522  48.964  1.00  0.00     0.018 A 
ATOM     29  C   UNL     1      22.787   5.832  51.649  1.00  0.00     0.027 A 
ATOM     30  C   UNL     1      21.838   5.803  49.445  1.00  0.00     0.027 A 
ATOM     31  C   UNL     1      21.745   5.441  50.793  1.00  0.00     0.038 A 
BRANCH  31  32
ATOM     32  N   UNL     1      20.670   4.718  51.335  1.00  0.00    -0.361 N 
ATOM     33  H   UNL     1      19.739   5.075  51.104  1.00  0.00     0.166 HD
BRANCH  32  34
ATOM     34  C   UNL     1      20.682   3.631  52.174  1.00  0.00     0.099 C 
ATOM     35  C   UNL     1      20.789   2.347  51.823  1.00  0.00     0.085 C 
ATOM     36  C   UNL     1      20.796   1.204  52.744  1.00  0.00     0.191 C 
ATOM     37  C   UNL     1      20.922   1.814  50.462  1.00  0.00     0.191 C 
ATOM     38  O   UNL     1      20.712   1.214  53.955  1.00  0.00    -0.289 OA
ATOM     39  C   UNL     1      20.930   0.002  51.897  1.00  0.00     0.057 C 
ATOM     40  C   UNL     1      21.001   0.348  50.604  1.00  0.00     0.057 C 
ATOM     41  O   UNL     1      20.960   2.435  49.419  1.00  0.00    -0.289 OA
ENDBRANCH  32  34
ENDBRANCH  31  32
ENDBRANCH  24  26
ENDBRANCH  23  24
ENDBRANCH   1  23
TORSDOF 12
ENDMDL
MODEL 6
REMARK VINA RESULT:    -7.725      4.376      6.905
REMARK INTER + INTRA:         -16.817
REMARK INTER:                 -14.257
REMARK INTRA:                  -2.560
REMARK UNBOUND:                -3.673
REMARK SMILES CC(C)(C)c1ccc(OC[C@@H](Cn2ccnc2[N+](=O)[O-])OC(=O)c2ccc(NC=C3C(=O)C=CC3=O)cc2)cc1
REMARK SMILES IDX 11 1 10 2 9 3 8 4 5 5 6 6 40 7 7 8 39 9 2 10 1 11 3 12 4 13
REMARK SMILES IDX 12 14 13 15 14 16 17 17 15 18 16 19 18 20 19 21 20 22 21 23
REMARK SMILES IDX 22 24 23 25 24 26 25 27 38 28 26 29 37 30 27 31 28 32 29 34
REMARK SMILES IDX 30 35 31 36 35 37 32 38 33 39 34 40 36 41
REMARK H PARENT 28 33
ROOT
ATOM      1  C   UNL     1      21.216   4.092  50.325  1.00  0.00     0.248 C 
ENDROOT
BRANCH   1   2
ATOM      2  C   UNL     1      21.449   4.257  51.836  1.00  0.00     0.278 C 
BRANCH   2   3
ATOM      3  O   UNL     1      21.521   2.965  52.440  1.00  0.00    -0.490 OA
BRANCH   3   4
ATOM      4  C   UNL     1      22.766   2.456  52.674  1.00  0.00     0.119 A 
ATOM      5  C   UNL     1      25.240   1.133  53.135  1.00  0.00    -0.042 A 
ATOM      6  C   UNL     1      25.145   2.534  53.135  1.00  0.00     0.008 A 
ATOM      7  C   UNL     1      24.056   0.413  52.893  1.00  0.00     0.008 A 
ATOM      8  C   UNL     1      23.925   3.189  52.907  1.00  0.00     0.047 A 
ATOM      9  C   UNL     1      22.840   1.065  52.663  1.00  0.00     0.047 A 
BRANCH   5  10
ATOM     10  C   UNL     1      26.562   0.387  53.387  1.00  0.00    -0.013 C 
ATOM     11  C   UNL     1      27.810   1.134  52.867  1.00  0.00     0.016 C 
ATOM     12  C   UNL     1      26.753   0.176  54.905  1.00  0.00     0.016 C 
ATOM     13  C   UNL     1      26.529  -0.988  52.684  1.00  0.00     0.016 C 
ENDBRANCH   5  10
ENDBRANCH   3   4
ENDBRANCH   2   3
ENDBRANCH   1   2
BRANCH   1  14
ATOM     14  C   UNL     1      19.974   4.884  49.885  1.00  0.00     0.254 C 
BRANCH  14  15
ATOM     15  N   UNL     1      18.994   4.048  49.209  1.00  0.00    -0.225 N 
ATOM     16  C   UNL     1      18.772   4.090  47.851  1.00  0.00     0.204 A 
ATOM     17  C   UNL     1      18.112   3.129  49.718  1.00  0.00     0.434 A 
ATOM     18  C   UNL     1      17.748   3.202  47.616  1.00  0.00     0.245 A 
ATOM     19  N   UNL     1      17.341   2.611  48.781  1.00  0.00    -0.074 NA
BRANCH  17  20
ATOM     20  N   UNL     1      18.003   2.758  51.102  1.00  0.00    -0.047 N 
ATOM     21  O   UNL     1      18.593   1.732  51.465  1.00  0.00    -0.390 OA
ATOM     22  O   UNL     1      17.325   3.487  51.840  1.00  0.00    -0.390 OA
ENDBRANCH  17  20
ENDBRANCH  14  15
ENDBRANCH   1  14
BRANCH   1  23
ATOM     23  O   UNL     1      22.363   4.593  49.601  1.00  0.00    -0.452 OA
BRANCH  23  24
ATOM     24  C   UNL     1      23.318   3.673  49.310  1.00  0.00     0.338 C 
ATOM     25  O   UNL     1      23.126   2.474  49.186  1.00  0.00    -0.246 OA
BRANCH  24  26
ATOM     26  C   UNL     1      24.648   4.315  49.145  1.00  0.00     0.060 A 
ATOM     27  C   UNL     1      25.846   3.641  49.390  1.00  0.00     0.018 A 
ATOM     28  C   UNL     1      24.692   5.646  48.720  1.00  0.00     0.018 A 
ATOM     29  C   UNL     1      27.069   4.304  49.225  1.00  0.00     0.027 A 
ATOM     30  C   UNL     1      25.920   6.301  48.555  1.00  0.00     0.027 A 
ATOM     31  C   UNL     1      27.128   5.643  48.810  1.00  0.00     0.038 A 
BRANCH  31  32
ATOM     32  N   UNL     1      28.389   6.244  48.667  1.00  0.00    -0.361 N 
ATOM     33  H   UNL     1      28.395   7.267  48.699  1.00  0.00     0.166 HD
BRANCH  32  34
ATOM     34  C   UNL     1      29.613   5.665  48.440  1.00  0.00     0.099 C 
ATOM     35  C   UNL     1      30.811   6.242  48.572  1.00  0.00     0.085 C 
ATOM     36  C   UNL     1      32.105   5.597  48.318  1.00  0.00     0.191 C 
ATOM     37  C   UNL     1      31.083   7.621  48.992  1.00  0.00     0.191 C 
ATOM     38  O   UNL     1      32.320   4.458  47.957  1.00  0.00    -0.289 OA
ATOM     39  C   UNL     1      33.130   6.623  48.594  1.00  0.00     0.057 C 
ATOM     40  C   UNL     1      32.550   7.771  48.975  1.00  0.00     0.057 C 
ATOM     41  O   UNL     1      30.280   8.480  49.296  1.00  0.00    -0.289 OA
ENDBRANCH  32  34
ENDBRANCH  31  32
ENDBRANCH  24  26
ENDBRANCH  23  24
ENDBRANCH   1  23
TORSDOF 12
ENDMDL
MODEL 7
REMARK VINA RESULT:    -7.691      4.083      6.795
REMARK INTER + INTRA:         -16.759
REMARK INTER:                 -13.061
REMARK INTRA:                  -3.698
REMARK UNBOUND:                -3.673
REMARK SMILES CC(C)(C)c1ccc(OC[C@@H](Cn2ccnc2[N+](=O)[O-])OC(=O)c2ccc(NC=C3C(=O)C=CC3=O)cc2)cc1
REMARK SMILES IDX 11 1 10 2 9 3 8 4 5 5 6 6 40 7 7 8 39 9 2 10 1 11 3 12 4 13
REMARK SMILES IDX 12 14 13 15 14 16 17 17 15 18 16 19 18 20 19 21 20 22 21 23
REMARK SMILES IDX 22 24 23 25 24 26 25 27 38 28 26 29 37 30 27 31 28 32 29 34
REMARK SMILES IDX 30 35 31 36 35 37 32 38 33 39 34 40 36 41
REMARK H PARENT 28 33
ROOT
ATOM      1  C   UNL     1      22.368   4.858  48.539  1.00  0.00     0.248 C 
ENDROOT
BRANCH   1   2
ATOM      2  C   UNL     1      21.965   3.386  48.357  1.00  0.00     0.278 C 
BRANCH   2   3
ATOM      3  O   UNL     1      20.694   3.172  48.970  1.00  0.00    -0.490 OA
BRANCH   3   4
ATOM      4  C   UNL     1      20.664   2.373  50.077  1.00  0.00     0.119 A 
ATOM      5  C   UNL     1      20.806   0.549  52.254  1.00  0.00    -0.042 A 
ATOM      6  C   UNL     1      19.918   1.638  52.264  1.00  0.00     0.008 A 
ATOM      7  C   UNL     1      21.624   0.404  51.119  1.00  0.00     0.008 A 
ATOM      8  C   UNL     1      19.848   2.539  51.190  1.00  0.00     0.047 A 
ATOM      9  C   UNL     1      21.555   1.303  50.050  1.00  0.00     0.047 A 
BRANCH   5  10
ATOM     10  C   UNL     1      20.903  -0.458  53.412  1.00  0.00    -0.013 C 
ATOM     11  C   UNL     1      19.692  -1.412  53.514  1.00  0.00     0.016 C 
ATOM     12  C   UNL     1      22.162  -1.334  53.230  1.00  0.00     0.016 C 
ATOM     13  C   UNL     1      21.001   0.297  54.756  1.00  0.00     0.016 C 
ENDBRANCH   5  10
ENDBRANCH   3   4
ENDBRANCH   2   3
ENDBRANCH   1   2
BRANCH   1  14
ATOM     14  C   UNL     1      21.271   5.786  47.994  1.00  0.00     0.254 C 
BRANCH  14  15
ATOM     15  N   UNL     1      21.497   7.180  48.346  1.00  0.00    -0.225 N 
ATOM     16  C   UNL     1      20.776   7.842  49.314  1.00  0.00     0.204 A 
ATOM     17  C   UNL     1      22.375   8.094  47.822  1.00  0.00     0.434 A 
ATOM     18  C   UNL     1      21.249   9.134  49.308  1.00  0.00     0.245 A 
ATOM     19  N   UNL     1      22.240   9.284  48.376  1.00  0.00    -0.074 NA
BRANCH  17  20
ATOM     20  N   UNL     1      23.333   7.828  46.784  1.00  0.00    -0.047 N 
ATOM     21  O   UNL     1      22.976   8.029  45.616  1.00  0.00    -0.390 OA
ATOM     22  O   UNL     1      24.449   7.413  47.126  1.00  0.00    -0.390 OA
ENDBRANCH  17  20
ENDBRANCH  14  15
ENDBRANCH   1  14
BRANCH   1  23
ATOM     23  O   UNL     1      22.553   5.139  49.945  1.00  0.00    -0.452 OA
BRANCH  23  24
ATOM     24  C   UNL     1      23.842   5.159  50.373  1.00  0.00     0.338 C 
ATOM     25  O   UNL     1      24.650   6.041  50.130  1.00  0.00    -0.246 OA
BRANCH  24  26
ATOM     26  C   UNL     1      24.150   3.965  51.201  1.00  0.00     0.060 A 
ATOM     27  C   UNL     1      23.500   3.695  52.407  1.00  0.00     0.018 A 
ATOM     28  C   UNL     1      25.127   3.076  50.742  1.00  0.00     0.018 A 
ATOM     29  C   UNL     1      23.841   2.555  53.147  1.00  0.00     0.027 A 
ATOM     30  C   UNL     1      25.460   1.937  51.487  1.00  0.00     0.027 A 
ATOM     31  C   UNL     1      24.828   1.660  52.704  1.00  0.00     0.038 A 
BRANCH  31  32
ATOM     32  N   UNL     1      25.119   0.540  53.499  1.00  0.00    -0.361 N 
ATOM     33  H   UNL     1      24.699   0.541  54.432  1.00  0.00     0.166 HD
BRANCH  32  34
ATOM     34  C   UNL     1      25.929  -0.536  53.230  1.00  0.00     0.099 C 
ATOM     35  C   UNL     1      27.257  -0.595  53.363  1.00  0.00     0.085 C 
ATOM     36  C   UNL     1      28.097  -1.760  53.065  1.00  0.00     0.191 C 
ATOM     37  C   UNL     1      28.143   0.479  53.827  1.00  0.00     0.191 C 
ATOM     38  O   UNL     1      27.753  -2.852  52.661  1.00  0.00    -0.289 OA
ATOM     39  C   UNL     1      29.484  -1.346  53.360  1.00  0.00     0.057 C 
ATOM     40  C   UNL     1      29.509  -0.076  53.792  1.00  0.00     0.057 C 
ATOM     41  O   UNL     1      27.836   1.602  54.174  1.00  0.00    -0.289 OA
ENDBRANCH  32  34
ENDBRANCH  31  32
ENDBRANCH  24  26
ENDBRANCH  23  24
ENDBRANCH   1  23
TORSDOF 12
ENDMDL
MODEL 8
REMARK VINA RESULT:    -7.663      1.924      2.975
REMARK INTER + INTRA:         -16.712
REMARK INTER:                 -13.676
REMARK INTRA:                  -3.035
REMARK UNBOUND:                -3.673
REMARK SMILES CC(C)(C)c1ccc(OC[C@@H](Cn2ccnc2[N+](=O)[O-])OC(=O)c2ccc(NC=C3C(=O)C=CC3=O)cc2)cc1
REMARK SMILES IDX 11 1 10 2 9 3 8 4 5 5 6 6 40 7 7 8 39 9 2 10 1 11 3 12 4 13
REMARK SMILES IDX 12 14 13 15 14 16 17 17 15 18 16 19 18 20 19 21 20 22 21 23
REMARK SMILES IDX 22 24 23 25 24 26 25 27 38 28 26 29 37 30 27 31 28 32 29 34
REMARK SMILES IDX 30 35 31 36 35 37 32 38 33 39 34 40 36 41
REMARK H PARENT 28 33
ROOT
ATOM      1  C   UNL     1      18.812   1.710  50.691  1.00  0.00     0.248 C 
ENDROOT
BRANCH   1   2
ATOM      2  C   UNL     1      19.714   1.028  49.650  1.00  0.00     0.278 C 
BRANCH   2   3
ATOM      3  O   UNL     1      20.046   1.973  48.631  1.00  0.00    -0.490 OA
BRANCH   3   4
ATOM      4  C   UNL     1      21.089   2.818  48.883  1.00  0.00     0.119 A 
ATOM      5  C   UNL     1      23.435   4.356  49.348  1.00  0.00    -0.042 A 
ATOM      6  C   UNL     1      22.153   4.911  49.486  1.00  0.00     0.008 A 
ATOM      7  C   UNL     1      23.507   3.004  48.965  1.00  0.00     0.008 A 
ATOM      8  C   UNL     1      20.994   4.154  49.256  1.00  0.00     0.047 A 
ATOM      9  C   UNL     1      22.352   2.249  48.735  1.00  0.00     0.047 A 
BRANCH   5  10
ATOM     10  C   UNL     1      24.723   5.158  49.598  1.00  0.00    -0.013 C 
ATOM     11  C   UNL     1      24.656   6.079  50.837  1.00  0.00     0.016 C 
ATOM     12  C   UNL     1      25.903   4.185  49.815  1.00  0.00     0.016 C 
ATOM     13  C   UNL     1      25.025   6.057  48.379  1.00  0.00     0.016 C 
ENDBRANCH   5  10
ENDBRANCH   3   4
ENDBRANCH   2   3
ENDBRANCH   1   2
BRANCH   1  14
ATOM     14  C   UNL     1      17.398   1.111  50.650  1.00  0.00     0.254 C 
BRANCH  14  15
ATOM     15  N   UNL     1      16.426   2.020  50.062  1.00  0.00    -0.225 N 
ATOM     16  C   UNL     1      16.108   2.025  48.722  1.00  0.00     0.204 A 
ATOM     17  C   UNL     1      15.689   3.022  50.639  1.00  0.00     0.434 A 
ATOM     18  C   UNL     1      15.204   3.049  48.560  1.00  0.00     0.245 A 
ATOM     19  N   UNL     1      14.951   3.667  49.755  1.00  0.00    -0.074 NA
BRANCH  17  20
ATOM     20  N   UNL     1      15.702   3.367  52.035  1.00  0.00    -0.047 N 
ATOM     21  O   UNL     1      15.006   2.683  52.796  1.00  0.00    -0.390 OA
ATOM     22  O   UNL     1      16.404   4.327  52.382  1.00  0.00    -0.390 OA
ENDBRANCH  17  20
ENDBRANCH  14  15
ENDBRANCH   1  14
BRANCH   1  23
ATOM     23  O   UNL     1      19.360   1.507  52.013  1.00  0.00    -0.452 OA
BRANCH  23  24
ATOM     24  C   UNL     1      20.330   2.382  52.385  1.00  0.00     0.338 C 
ATOM     25  O   UNL     1      20.189   3.591  52.478  1.00  0.00    -0.246 OA
BRANCH  24  26
ATOM     26  C   UNL     1      21.603   1.676  52.684  1.00  0.00     0.060 A 
ATOM     27  C   UNL     1      21.642   0.383  53.208  1.00  0.00     0.018 A 
ATOM     28  C   UNL     1      22.805   2.339  52.419  1.00  0.00     0.018 A 
ATOM     29  C   UNL     1      22.875  -0.227  53.476  1.00  0.00     0.027 A 
ATOM     30  C   UNL     1      24.034   1.720  52.688  1.00  0.00     0.027 A 
ATOM     31  C   UNL     1      24.089   0.430  53.226  1.00  0.00     0.038 A 
BRANCH  31  32
ATOM     32  N   UNL     1      25.286  -0.242  53.522  1.00  0.00    -0.361 N 
ATOM     33  H   UNL     1      25.231  -1.264  53.511  1.00  0.00     0.166 HD
BRANCH  32  34
ATOM     34  C   UNL     1      26.511   0.268  53.876  1.00  0.00     0.099 C 
ATOM     35  C   UNL     1      27.703  -0.311  53.701  1.00  0.00     0.085 C 
ATOM     36  C   UNL     1      28.997   0.258  54.093  1.00  0.00     0.191 C 
ATOM     37  C   UNL     1      27.965  -1.618  53.088  1.00  0.00     0.191 C 
ATOM     38  O   UNL     1      29.218   1.326  54.628  1.00  0.00    -0.289 OA
ATOM     39  C   UNL     1      30.013  -0.739  53.703  1.00  0.00     0.057 C 
ATOM     40  C   UNL     1      29.428  -1.803  53.133  1.00  0.00     0.057 C 
ATOM     41  O   UNL     1      27.159  -2.403  52.631  1.00  0.00    -0.289 OA
ENDBRANCH  32  34
ENDBRANCH  31  32
ENDBRANCH  24  26
ENDBRANCH  23  24
ENDBRANCH   1  23
TORSDOF 12
ENDMDL
MODEL 9
REMARK VINA RESULT:    -7.564      1.683      2.772
REMARK INTER + INTRA:         -16.544
REMARK INTER:                 -14.408
REMARK INTRA:                  -2.135
REMARK UNBOUND:                -3.673
REMARK SMILES CC(C)(C)c1ccc(OC[C@@H](Cn2ccnc2[N+](=O)[O-])OC(=O)c2ccc(NC=C3C(=O)C=CC3=O)cc2)cc1
REMARK SMILES IDX 11 1 10 2 9 3 8 4 5 5 6 6 40 7 7 8 39 9 2 10 1 11 3 12 4 13
REMARK SMILES IDX 12 14 13 15 14 16 17 17 15 18 16 19 18 20 19 21 20 22 21 23
REMARK SMILES IDX 22 24 23 25 24 26 25 27 38 28 26 29 37 30 27 31 28 32 29 34
REMARK SMILES IDX 30 35 31 36 35 37 32 38 33 39 34 40 36 41
REMARK H PARENT 28 33
ROOT
ATOM      1  C   UNL     1      19.273   1.551  51.660  1.00  0.00     0.248 C 
ENDROOT
BRANCH   1   2
ATOM      2  C   UNL     1      19.880   2.776  50.958  1.00  0.00     0.278 C 
BRANCH   2   3
ATOM      3  O   UNL     1      20.827   2.333  49.985  1.00  0.00    -0.490 OA
BRANCH   3   4
ATOM      4  C   UNL     1      21.929   3.115  49.788  1.00  0.00     0.119 A 
ATOM      5  C   UNL     1      24.050   4.972  49.417  1.00  0.00    -0.042 A 
ATOM      6  C   UNL     1      24.264   3.586  49.338  1.00  0.00     0.008 A 
ATOM      7  C   UNL     1      22.739   5.400  49.691  1.00  0.00     0.008 A 
ATOM      8  C   UNL     1      23.218   2.668  49.522  1.00  0.00     0.047 A 
ATOM      9  C   UNL     1      21.697   4.486  49.876  1.00  0.00     0.047 A 
BRANCH   5  10
ATOM     10  C   UNL     1      25.174   6.002  49.215  1.00  0.00    -0.013 C 
ATOM     11  C   UNL     1      25.360   6.967  50.408  1.00  0.00     0.016 C 
ATOM     12  C   UNL     1      26.516   5.267  49.007  1.00  0.00     0.016 C 
ATOM     13  C   UNL     1      24.873   6.869  47.973  1.00  0.00     0.016 C 
ENDBRANCH   5  10
ENDBRANCH   3   4
ENDBRANCH   2   3
ENDBRANCH   1   2
BRANCH   1  14
ATOM     14  C   UNL     1      18.099   0.991  50.842  1.00  0.00     0.254 C 
BRANCH  14  15
ATOM     15  N   UNL     1      16.830   1.097  51.546  1.00  0.00    -0.225 N 
ATOM     16  C   UNL     1      16.228   0.037  52.186  1.00  0.00     0.204 A 
ATOM     17  C   UNL     1      15.989   2.170  51.698  1.00  0.00     0.434 A 
ATOM     18  C   UNL     1      15.040   0.527  52.676  1.00  0.00     0.245 A 
ATOM     19  N   UNL     1      14.896   1.852  52.366  1.00  0.00    -0.074 NA
BRANCH  17  20
ATOM     20  N   UNL     1      16.229   3.494  51.193  1.00  0.00    -0.047 N 
ATOM     21  O   UNL     1      16.104   3.670  49.974  1.00  0.00    -0.390 OA
ATOM     22  O   UNL     1      16.549   4.370  52.009  1.00  0.00    -0.390 OA
ENDBRANCH  17  20
ENDBRANCH  14  15
ENDBRANCH   1  14
BRANCH   1  23
ATOM     23  O   UNL     1      20.278   0.519  51.790  1.00  0.00    -0.452 OA
BRANCH  23  24
ATOM     24  C   UNL     1      20.318  -0.110  52.993  1.00  0.00     0.338 C 
ATOM     25  O   UNL     1      19.343  -0.492  53.620  1.00  0.00    -0.246 OA
BRANCH  24  26
ATOM     26  C   UNL     1      21.718  -0.293  53.455  1.00  0.00     0.060 A 
ATOM     27  C   UNL     1      22.050  -1.075  54.563  1.00  0.00     0.018 A 
ATOM     28  C   UNL     1      22.739   0.340  52.740  1.00  0.00     0.018 A 
ATOM     29  C   UNL     1      23.389  -1.203  54.955  1.00  0.00     0.027 A 
ATOM     30  C   UNL     1      24.076   0.205  53.138  1.00  0.00     0.027 A 
ATOM     31  C   UNL     1      24.423  -0.564  54.254  1.00  0.00     0.038 A 
BRANCH  31  32
ATOM     32  N   UNL     1      25.742  -0.735  54.706  1.00  0.00    -0.361 N 
ATOM     33  H   UNL     1      25.939  -1.631  55.159  1.00  0.00     0.166 HD
BRANCH  32  34
ATOM     34  C   UNL     1      26.797   0.143  54.677  1.00  0.00     0.099 C 
ATOM     35  C   UNL     1      28.007  -0.073  54.153  1.00  0.00     0.085 C 
ATOM     36  C   UNL     1      29.119   0.885  54.139  1.00  0.00     0.191 C 
ATOM     37  C   UNL     1      28.474  -1.297  53.491  1.00  0.00     0.191 C 
ATOM     38  O   UNL     1      29.142   2.015  54.583  1.00  0.00    -0.289 OA
ATOM     39  C   UNL     1      30.237   0.199  53.463  1.00  0.00     0.057 C 
ATOM     40  C   UNL     1      29.871  -1.038  53.096  1.00  0.00     0.057 C 
ATOM     41  O   UNL     1      27.854  -2.323  53.296  1.00  0.00    -0.289 OA
ENDBRANCH  32  34
ENDBRANCH  31  32
ENDBRANCH  24  26
ENDBRANCH  23  24
ENDBRANCH   1  23
TORSDOF 12
ENDMDL
