MODEL 1
REMARK VINA RESULT:    -7.884      0.000      0.000
REMARK INTER + INTRA:         -14.674
REMARK INTER:                 -12.954
REMARK INTRA:                  -1.720
REMARK UNBOUND:                -1.720
REMARK SMILES CC(C)(C)OC[C@@H](Cn1ccnc1[N+](=O)[O-])OC(=O)c1ccc(NC=C2C(=O)C=CC2=O)cc1
REMARK SMILES IDX 7 1 6 2 5 3 2 4 1 5 3 6 4 7 8 8 9 9 10 10 13 11 11 12 12 13
REMARK SMILES IDX 14 14 15 15 16 16 17 17 18 18 19 19 20 20 21 21 34 22 22 23
REMARK SMILES IDX 33 24 23 25 24 26 25 28 26 29 27 30 31 31 28 32 29 33 30 34
REMARK SMILES IDX 32 35
REMARK H PARENT 24 27
ROOT
ATOM      1  C   UNL     1      22.427   2.290  51.694  1.00  0.00     0.237 C 
ENDROOT
BRANCH   1   2
ATOM      2  C   UNL     1      23.540   2.012  52.716  1.00  0.00     0.209 C 
BRANCH   2   3
ATOM      3  O   UNL     1      24.397   0.989  52.227  1.00  0.00    -0.372 OA
BRANCH   3   4
ATOM      4  C   UNL     1      25.593   0.717  52.973  1.00  0.00     0.060 C 
ATOM      5  C   UNL     1      26.723   0.240  52.054  1.00  0.00     0.042 C 
ATOM      6  C   UNL     1      25.345  -0.290  54.102  1.00  0.00     0.042 C 
ATOM      7  C   UNL     1      25.991   2.065  53.589  1.00  0.00     0.042 C 
ENDBRANCH   3   4
ENDBRANCH   2   3
ENDBRANCH   1   2
BRANCH   1   8
ATOM      8  C   UNL     1      21.089   2.539  52.411  1.00  0.00     0.253 C 
BRANCH   8   9
ATOM      9  N   UNL     1      20.123   1.459  52.283  1.00  0.00    -0.226 N 
ATOM     10  C   UNL     1      18.998   1.540  51.490  1.00  0.00     0.204 A 
ATOM     11  C   UNL     1      20.085   0.226  52.888  1.00  0.00     0.434 A 
ATOM     12  C   UNL     1      18.340   0.346  51.656  1.00  0.00     0.245 A 
ATOM     13  N   UNL     1      19.013  -0.461  52.532  1.00  0.00    -0.074 NA
BRANCH  11  14
ATOM     14  N   UNL     1      21.064  -0.286  53.813  1.00  0.00    -0.047 N 
ATOM     15  O   UNL     1      21.918  -1.064  53.368  1.00  0.00    -0.390 OA
ATOM     16  O   UNL     1      20.970   0.062  54.998  1.00  0.00    -0.390 OA
ENDBRANCH  11  14
ENDBRANCH   8   9
ENDBRANCH   1   8
BRANCH   1  17
ATOM     17  O   UNL     1      22.825   3.470  50.956  1.00  0.00    -0.453 OA
BRANCH  17  18
ATOM     18  C   UNL     1      23.229   3.260  49.677  1.00  0.00     0.338 C 
ATOM     19  O   UNL     1      22.611   2.629  48.836  1.00  0.00    -0.246 OA
BRANCH  18  20
ATOM     20  C   UNL     1      24.522   3.944  49.413  1.00  0.00     0.060 A 
ATOM     21  C   UNL     1      24.490   5.276  48.991  1.00  0.00     0.018 A 
ATOM     22  C   UNL     1      25.757   3.307  49.569  1.00  0.00     0.018 A 
ATOM     23  C   UNL     1      25.682   5.967  48.733  1.00  0.00     0.027 A 
ATOM     24  C   UNL     1      26.941   4.005  49.305  1.00  0.00     0.027 A 
ATOM     25  C   UNL     1      26.925   5.344  48.881  1.00  0.00     0.038 A 
BRANCH  25  26
ATOM     26  N   UNL     1      28.153   5.984  48.647  1.00  0.00    -0.361 N 
ATOM     27  H   UNL     1      28.160   6.996  48.800  1.00  0.00     0.166 HD
BRANCH  26  28
ATOM     28  C   UNL     1      29.366   5.447  48.289  1.00  0.00     0.099 C 
ATOM     29  C   UNL     1      30.550   6.066  48.297  1.00  0.00     0.085 C 
ATOM     30  C   UNL     1      31.834   5.470  47.909  1.00  0.00     0.191 C 
ATOM     31  C   UNL     1      30.811   7.455  48.693  1.00  0.00     0.191 C 
ATOM     32  O   UNL     1      32.051   4.342  47.519  1.00  0.00    -0.289 OA
ATOM     33  C   UNL     1      32.842   6.533  48.089  1.00  0.00     0.057 C 
ATOM     34  C   UNL     1      32.263   7.658  48.533  1.00  0.00     0.057 C 
ATOM     35  O   UNL     1      30.010   8.283  49.077  1.00  0.00    -0.289 OA
ENDBRANCH  26  28
ENDBRANCH  25  26
ENDBRANCH  18  20
ENDBRANCH  17  18
ENDBRANCH   1  17
TORSDOF 11
ENDMDL
MODEL 2
REMARK VINA RESULT:    -7.848      2.894      4.991
REMARK INTER + INTRA:         -14.615
REMARK INTER:                 -13.327
REMARK INTRA:                  -1.287
REMARK UNBOUND:                -1.720
REMARK SMILES CC(C)(C)OC[C@@H](Cn1ccnc1[N+](=O)[O-])OC(=O)c1ccc(NC=C2C(=O)C=CC2=O)cc1
REMARK SMILES IDX 7 1 6 2 5 3 2 4 1 5 3 6 4 7 8 8 9 9 10 10 13 11 11 12 12 13
REMARK SMILES IDX 14 14 15 15 16 16 17 17 18 18 19 19 20 20 21 21 34 22 22 23
REMARK SMILES IDX 33 24 23 25 24 26 25 28 26 29 27 30 31 31 28 32 29 33 30 34
REMARK SMILES IDX 32 35
REMARK H PARENT 24 27
ROOT
ATOM      1  C   UNL     1      25.484   1.804  52.071  1.00  0.00     0.237 C 
ENDROOT
BRANCH   1   2
ATOM      2  C   UNL     1      24.577   0.675  52.584  1.00  0.00     0.209 C 
BRANCH   2   3
ATOM      3  O   UNL     1      23.347   1.218  53.047  1.00  0.00    -0.372 OA
BRANCH   3   4
ATOM      4  C   UNL     1      22.147   0.498  52.730  1.00  0.00     0.060 C 
ATOM      5  C   UNL     1      21.813   0.605  51.238  1.00  0.00     0.042 C 
ATOM      6  C   UNL     1      20.962   0.956  53.589  1.00  0.00     0.042 C 
ATOM      7  C   UNL     1      22.463  -0.967  53.063  1.00  0.00     0.042 C 
ENDBRANCH   3   4
ENDBRANCH   2   3
ENDBRANCH   1   2
BRANCH   1   8
ATOM      8  C   UNL     1      26.886   1.260  51.744  1.00  0.00     0.253 C 
BRANCH   8   9
ATOM      9  N   UNL     1      27.791   1.193  52.881  1.00  0.00    -0.226 N 
ATOM     10  C   UNL     1      28.304   2.310  53.505  1.00  0.00     0.204 A 
ATOM     11  C   UNL     1      28.325   0.105  53.527  1.00  0.00     0.434 A 
ATOM     12  C   UNL     1      29.123   1.835  54.501  1.00  0.00     0.245 A 
ATOM     13  N   UNL     1      29.140   0.467  54.503  1.00  0.00    -0.074 NA
BRANCH  11  14
ATOM     14  N   UNL     1      28.067  -1.275  53.202  1.00  0.00    -0.047 N 
ATOM     15  O   UNL     1      29.045  -2.010  53.013  1.00  0.00    -0.390 OA
ATOM     16  O   UNL     1      26.884  -1.629  53.105  1.00  0.00    -0.390 OA
ENDBRANCH  11  14
ENDBRANCH   8   9
ENDBRANCH   1   8
BRANCH   1  17
ATOM     17  O   UNL     1      24.860   2.328  50.876  1.00  0.00    -0.453 OA
BRANCH  17  18
ATOM     18  C   UNL     1      24.452   3.622  50.941  1.00  0.00     0.338 C 
ATOM     19  O   UNL     1      23.484   4.026  51.563  1.00  0.00    -0.246 OA
BRANCH  18  20
ATOM     20  C   UNL     1      25.375   4.504  50.181  1.00  0.00     0.060 A 
ATOM     21  C   UNL     1      26.435   3.912  49.488  1.00  0.00     0.018 A 
ATOM     22  C   UNL     1      25.221   5.893  50.134  1.00  0.00     0.018 A 
ATOM     23  C   UNL     1      27.331   4.700  48.754  1.00  0.00     0.027 A 
ATOM     24  C   UNL     1      26.124   6.672  49.401  1.00  0.00     0.027 A 
ATOM     25  C   UNL     1      27.194   6.092  48.700  1.00  0.00     0.038 A 
BRANCH  25  26
ATOM     26  N   UNL     1      28.052   6.933  47.976  1.00  0.00    -0.361 N 
ATOM     27  H   UNL     1      27.989   6.859  46.957  1.00  0.00     0.166 HD
BRANCH  26  28
ATOM     28  C   UNL     1      28.935   7.884  48.430  1.00  0.00     0.099 C 
ATOM     29  C   UNL     1      30.245   7.726  48.641  1.00  0.00     0.085 C 
ATOM     30  C   UNL     1      31.168   8.758  49.128  1.00  0.00     0.191 C 
ATOM     31  C   UNL     1      31.026   6.501  48.431  1.00  0.00     0.191 C 
ATOM     32  O   UNL     1      30.920   9.908  49.422  1.00  0.00    -0.289 OA
ATOM     33  C   UNL     1      32.494   8.114  49.194  1.00  0.00     0.057 C 
ATOM     34  C   UNL     1      32.414   6.835  48.799  1.00  0.00     0.057 C 
ATOM     35  O   UNL     1      30.629   5.424  48.034  1.00  0.00    -0.289 OA
ENDBRANCH  26  28
ENDBRANCH  25  26
ENDBRANCH  18  20
ENDBRANCH  17  18
ENDBRANCH   1  17
TORSDOF 11
ENDMDL
MODEL 3
REMARK VINA RESULT:    -7.830      1.802      2.522
REMARK INTER + INTRA:         -14.585
REMARK INTER:                 -13.092
REMARK INTRA:                  -1.493
REMARK UNBOUND:                -1.720
REMARK SMILES CC(C)(C)OC[C@@H](Cn1ccnc1[N+](=O)[O-])OC(=O)c1ccc(NC=C2C(=O)C=CC2=O)cc1
REMARK SMILES IDX 7 1 6 2 5 3 2 4 1 5 3 6 4 7 8 8 9 9 10 10 13 11 11 12 12 13
REMARK SMILES IDX 14 14 15 15 16 16 17 17 18 18 19 19 20 20 21 21 34 22 22 23
REMARK SMILES IDX 33 24 23 25 24 26 25 28 26 29 27 30 31 31 28 32 29 33 30 34
REMARK SMILES IDX 32 35
REMARK H PARENT 24 27
ROOT
ATOM      1  C   UNL     1      24.453   0.915  52.074  1.00  0.00     0.237 C 
ENDROOT
BRANCH   1   2
ATOM      2  C   UNL     1      25.634   0.010  52.455  1.00  0.00     0.209 C 
BRANCH   2   3
ATOM      3  O   UNL     1      26.848   0.746  52.379  1.00  0.00    -0.372 OA
BRANCH   3   4
ATOM      4  C   UNL     1      27.703   0.732  53.533  1.00  0.00     0.060 C 
ATOM      5  C   UNL     1      28.831  -0.293  53.373  1.00  0.00     0.042 C 
ATOM      6  C   UNL     1      26.915   0.480  54.824  1.00  0.00     0.042 C 
ATOM      7  C   UNL     1      28.315   2.138  53.591  1.00  0.00     0.042 C 
ENDBRANCH   3   4
ENDBRANCH   2   3
ENDBRANCH   1   2
BRANCH   1   8
ATOM      8  C   UNL     1      23.593   1.225  53.312  1.00  0.00     0.253 C 
BRANCH   8   9
ATOM      9  N   UNL     1      22.541   0.257  53.578  1.00  0.00    -0.226 N 
ATOM     10  C   UNL     1      22.725  -0.863  54.361  1.00  0.00     0.204 A 
ATOM     11  C   UNL     1      21.243   0.211  53.131  1.00  0.00     0.434 A 
ATOM     12  C   UNL     1      21.522  -1.526  54.348  1.00  0.00     0.245 A 
ATOM     13  N   UNL     1      20.610  -0.861  53.575  1.00  0.00    -0.074 NA
BRANCH  11  14
ATOM     14  N   UNL     1      20.616   1.183  52.272  1.00  0.00    -0.047 N 
ATOM     15  O   UNL     1      20.454   0.875  51.084  1.00  0.00    -0.390 OA
ATOM     16  O   UNL     1      20.306   2.274  52.770  1.00  0.00    -0.390 OA
ENDBRANCH  11  14
ENDBRANCH   8   9
ENDBRANCH   1   8
BRANCH   1  17
ATOM     17  O   UNL     1      25.018   2.135  51.539  1.00  0.00    -0.453 OA
BRANCH  17  18
ATOM     18  C   UNL     1      24.354   2.684  50.490  1.00  0.00     0.338 C 
ATOM     19  O   UNL     1      23.230   2.379  50.128  1.00  0.00    -0.246 OA
BRANCH  18  20
ATOM     20  C   UNL     1      25.167   3.754  49.854  1.00  0.00     0.060 A 
ATOM     21  C   UNL     1      26.523   3.506  49.625  1.00  0.00     0.018 A 
ATOM     22  C   UNL     1      24.627   4.988  49.480  1.00  0.00     0.018 A 
ATOM     23  C   UNL     1      27.331   4.480  49.024  1.00  0.00     0.027 A 
ATOM     24  C   UNL     1      25.443   5.957  48.885  1.00  0.00     0.027 A 
ATOM     25  C   UNL     1      26.808   5.722  48.648  1.00  0.00     0.038 A 
BRANCH  25  26
ATOM     26  N   UNL     1      27.563   6.734  48.035  1.00  0.00    -0.361 N 
ATOM     27  H   UNL     1      27.038   7.565  47.747  1.00  0.00     0.166 HD
BRANCH  26  28
ATOM     28  C   UNL     1      28.916   6.801  47.807  1.00  0.00     0.099 C 
ATOM     29  C   UNL     1      29.762   7.726  48.269  1.00  0.00     0.085 C 
ATOM     30  C   UNL     1      31.206   7.776  48.010  1.00  0.00     0.191 C 
ATOM     31  C   UNL     1      29.428   8.873  49.122  1.00  0.00     0.191 C 
ATOM     32  O   UNL     1      31.878   7.012  47.350  1.00  0.00    -0.289 OA
ATOM     33  C   UNL     1      31.703   8.966  48.729  1.00  0.00     0.057 C 
ATOM     34  C   UNL     1      30.696   9.588  49.358  1.00  0.00     0.057 C 
ATOM     35  O   UNL     1      28.337   9.186  49.555  1.00  0.00    -0.289 OA
ENDBRANCH  26  28
ENDBRANCH  25  26
ENDBRANCH  18  20
ENDBRANCH  17  18
ENDBRANCH   1  17
TORSDOF 11
ENDMDL
MODEL 4
REMARK VINA RESULT:    -7.802      1.343      2.379
REMARK INTER + INTRA:         -14.539
REMARK INTER:                 -12.907
REMARK INTRA:                  -1.632
REMARK UNBOUND:                -1.720
REMARK SMILES CC(C)(C)OC[C@@H](Cn1ccnc1[N+](=O)[O-])OC(=O)c1ccc(NC=C2C(=O)C=CC2=O)cc1
REMARK SMILES IDX 7 1 6 2 5 3 2 4 1 5 3 6 4 7 8 8 9 9 10 10 13 11 11 12 12 13
REMARK SMILES IDX 14 14 15 15 16 16 17 17 18 18 19 19 20 20 21 21 34 22 22 23
REMARK SMILES IDX 33 24 23 25 24 26 25 28 26 29 27 30 31 31 28 32 29 33 30 34
REMARK SMILES IDX 32 35
REMARK H PARENT 24 27
ROOT
ATOM      1  C   UNL     1      24.330   1.528  51.748  1.00  0.00     0.237 C 
ENDROOT
BRANCH   1   2
ATOM      2  C   UNL     1      25.394   0.496  52.152  1.00  0.00     0.209 C 
BRANCH   2   3
ATOM      3  O   UNL     1      26.639   1.147  52.368  1.00  0.00    -0.372 OA
BRANCH   3   4
ATOM      4  C   UNL     1      27.453   0.674  53.451  1.00  0.00     0.060 C 
ATOM      5  C   UNL     1      26.634   0.532  54.739  1.00  0.00     0.042 C 
ATOM      6  C   UNL     1      28.678   1.567  53.678  1.00  0.00     0.042 C 
ATOM      7  C   UNL     1      27.929  -0.718  53.011  1.00  0.00     0.042 C 
ENDBRANCH   3   4
ENDBRANCH   2   3
ENDBRANCH   1   2
BRANCH   1   8
ATOM      8  C   UNL     1      23.493   1.942  52.970  1.00  0.00     0.253 C 
BRANCH   8   9
ATOM      9  N   UNL     1      22.073   1.642  52.863  1.00  0.00    -0.226 N 
ATOM     10  C   UNL     1      21.154   2.520  52.329  1.00  0.00     0.204 A 
ATOM     11  C   UNL     1      21.369   0.531  53.257  1.00  0.00     0.434 A 
ATOM     12  C   UNL     1      19.938   1.888  52.428  1.00  0.00     0.245 A 
ATOM     13  N   UNL     1      20.076   0.660  53.014  1.00  0.00    -0.074 NA
BRANCH  11  14
ATOM     14  N   UNL     1      21.929  -0.642  53.877  1.00  0.00    -0.047 N 
ATOM     15  O   UNL     1      22.505  -1.457  53.144  1.00  0.00    -0.390 OA
ATOM     16  O   UNL     1      21.774  -0.775  55.099  1.00  0.00    -0.390 OA
ENDBRANCH  11  14
ENDBRANCH   8   9
ENDBRANCH   1   8
BRANCH   1  17
ATOM     17  O   UNL     1      25.040   2.672  51.217  1.00  0.00    -0.453 OA
BRANCH  17  18
ATOM     18  C   UNL     1      24.506   3.234  50.102  1.00  0.00     0.338 C 
ATOM     19  O   UNL     1      23.397   2.997  49.654  1.00  0.00    -0.246 OA
BRANCH  18  20
ATOM     20  C   UNL     1      25.442   4.225  49.512  1.00  0.00     0.060 A 
ATOM     21  C   UNL     1      26.768   3.836  49.297  1.00  0.00     0.018 A 
ATOM     22  C   UNL     1      25.048   5.521  49.167  1.00  0.00     0.018 A 
ATOM     23  C   UNL     1      27.688   4.733  48.739  1.00  0.00     0.027 A 
ATOM     24  C   UNL     1      25.977   6.411  48.614  1.00  0.00     0.027 A 
ATOM     25  C   UNL     1      27.312   6.034  48.392  1.00  0.00     0.038 A 
BRANCH  25  26
ATOM     26  N   UNL     1      28.184   6.975  47.822  1.00  0.00    -0.361 N 
ATOM     27  H   UNL     1      28.149   7.049  46.802  1.00  0.00     0.166 HD
BRANCH  26  28
ATOM     28  C   UNL     1      29.048   7.851  48.434  1.00  0.00     0.099 C 
ATOM     29  C   UNL     1      30.366   7.699  48.591  1.00  0.00     0.085 C 
ATOM     30  C   UNL     1      31.269   8.650  49.251  1.00  0.00     0.191 C 
ATOM     31  C   UNL     1      31.178   6.562  48.141  1.00  0.00     0.191 C 
ATOM     32  O   UNL     1      30.994   9.715  49.761  1.00  0.00    -0.289 OA
ATOM     33  C   UNL     1      32.615   8.049  49.172  1.00  0.00     0.057 C 
ATOM     34  C   UNL     1      32.563   6.866  48.543  1.00  0.00     0.057 C 
ATOM     35  O   UNL     1      30.804   5.567  47.553  1.00  0.00    -0.289 OA
ENDBRANCH  26  28
ENDBRANCH  25  26
ENDBRANCH  18  20
ENDBRANCH  17  18
ENDBRANCH   1  17
TORSDOF 11
ENDMDL
MODEL 5
REMARK VINA RESULT:    -7.718      2.175      2.932
REMARK INTER + INTRA:         -14.401
REMARK INTER:                 -12.697
REMARK INTRA:                  -1.704
REMARK UNBOUND:                -1.720
REMARK SMILES CC(C)(C)OC[C@@H](Cn1ccnc1[N+](=O)[O-])OC(=O)c1ccc(NC=C2C(=O)C=CC2=O)cc1
REMARK SMILES IDX 7 1 6 2 5 3 2 4 1 5 3 6 4 7 8 8 9 9 10 10 13 11 11 12 12 13
REMARK SMILES IDX 14 14 15 15 16 16 17 17 18 18 19 19 20 20 21 21 34 22 22 23
REMARK SMILES IDX 33 24 23 25 24 26 25 28 26 29 27 30 31 31 28 32 29 33 30 34
REMARK SMILES IDX 32 35
REMARK H PARENT 24 27
ROOT
ATOM      1  C   UNL     1      25.427   2.303  51.701  1.00  0.00     0.237 C 
ENDROOT
BRANCH   1   2
ATOM      2  C   UNL     1      26.935   2.133  51.945  1.00  0.00     0.209 C 
BRANCH   2   3
ATOM      3  O   UNL     1      27.190   0.850  52.502  1.00  0.00    -0.372 OA
BRANCH   3   4
ATOM      4  C   UNL     1      28.110   0.779  53.602  1.00  0.00     0.060 C 
ATOM      5  C   UNL     1      28.719   2.153  53.904  1.00  0.00     0.042 C 
ATOM      6  C   UNL     1      29.207  -0.265  53.362  1.00  0.00     0.042 C 
ATOM      7  C   UNL     1      27.260   0.339  54.802  1.00  0.00     0.042 C 
ENDBRANCH   3   4
ENDBRANCH   2   3
ENDBRANCH   1   2
BRANCH   1   8
ATOM      8  C   UNL     1      24.646   2.112  53.012  1.00  0.00     0.253 C 
BRANCH   8   9
ATOM      9  N   UNL     1      23.615   1.088  52.960  1.00  0.00    -0.226 N 
ATOM     10  C   UNL     1      23.773  -0.171  53.500  1.00  0.00     0.204 A 
ATOM     11  C   UNL     1      22.367   1.114  52.389  1.00  0.00     0.434 A 
ATOM     12  C   UNL     1      22.604  -0.840  53.227  1.00  0.00     0.245 A 
ATOM     13  N   UNL     1      21.740  -0.042  52.529  1.00  0.00    -0.074 NA
BRANCH  11  14
ATOM     14  N   UNL     1      21.781   2.236  51.700  1.00  0.00    -0.047 N 
ATOM     15  O   UNL     1      21.429   3.206  52.384  1.00  0.00    -0.390 OA
ATOM     16  O   UNL     1      21.641   2.145  50.473  1.00  0.00    -0.390 OA
ENDBRANCH  11  14
ENDBRANCH   8   9
ENDBRANCH   1   8
BRANCH   1  17
ATOM     17  O   UNL     1      25.237   3.647  51.196  1.00  0.00    -0.453 OA
BRANCH  17  18
ATOM     18  C   UNL     1      25.181   3.768  49.845  1.00  0.00     0.338 C 
ATOM     19  O   UNL     1      24.408   3.173  49.114  1.00  0.00    -0.246 OA
BRANCH  18  20
ATOM     20  C   UNL     1      26.168   4.770  49.365  1.00  0.00     0.060 A 
ATOM     21  C   UNL     1      25.841   6.125  49.472  1.00  0.00     0.018 A 
ATOM     22  C   UNL     1      27.402   4.409  48.815  1.00  0.00     0.018 A 
ATOM     23  C   UNL     1      26.739   7.108  49.038  1.00  0.00     0.027 A 
ATOM     24  C   UNL     1      28.290   5.399  48.380  1.00  0.00     0.027 A 
ATOM     25  C   UNL     1      27.975   6.764  48.482  1.00  0.00     0.038 A 
BRANCH  25  26
ATOM     26  N   UNL     1      28.920   7.702  48.037  1.00  0.00    -0.361 N 
ATOM     27  H   UNL     1      28.900   8.609  48.510  1.00  0.00     0.166 HD
BRANCH  26  28
ATOM     28  C   UNL     1      29.908   7.568  47.091  1.00  0.00     0.099 C 
ATOM     29  C   UNL     1      31.217   7.416  47.314  1.00  0.00     0.085 C 
ATOM     30  C   UNL     1      32.254   7.276  46.286  1.00  0.00     0.191 C 
ATOM     31  C   UNL     1      31.882   7.357  48.622  1.00  0.00     0.191 C 
ATOM     32  O   UNL     1      32.121   7.273  45.081  1.00  0.00    -0.289 OA
ATOM     33  C   UNL     1      33.529   7.132  47.016  1.00  0.00     0.057 C 
ATOM     34  C   UNL     1      33.318   7.178  48.339  1.00  0.00     0.057 C 
ATOM     35  O   UNL     1      31.373   7.437  49.721  1.00  0.00    -0.289 OA
ENDBRANCH  26  28
ENDBRANCH  25  26
ENDBRANCH  18  20
ENDBRANCH  17  18
ENDBRANCH   1  17
TORSDOF 11
ENDMDL
MODEL 6
REMARK VINA RESULT:    -7.657      2.389      3.554
REMARK INTER + INTRA:         -14.300
REMARK INTER:                 -12.702
REMARK INTRA:                  -1.598
REMARK UNBOUND:                -1.720
REMARK SMILES CC(C)(C)OC[C@@H](Cn1ccnc1[N+](=O)[O-])OC(=O)c1ccc(NC=C2C(=O)C=CC2=O)cc1
REMARK SMILES IDX 7 1 6 2 5 3 2 4 1 5 3 6 4 7 8 8 9 9 10 10 13 11 11 12 12 13
REMARK SMILES IDX 14 14 15 15 16 16 17 17 18 18 19 19 20 20 21 21 34 22 22 23
REMARK SMILES IDX 33 24 23 25 24 26 25 28 26 29 27 30 31 31 28 32 29 33 30 34
REMARK SMILES IDX 32 35
REMARK H PARENT 24 27
ROOT
ATOM      1  C   UNL     1      25.061   2.197  51.551  1.00  0.00     0.237 C 
ENDROOT
BRANCH   1   2
ATOM      2  C   UNL     1      26.410   1.474  51.686  1.00  0.00     0.209 C 
BRANCH   2   3
ATOM      3  O   UNL     1      26.852   1.530  53.036  1.00  0.00    -0.372 OA
BRANCH   3   4
ATOM      4  C   UNL     1      27.518   0.372  53.561  1.00  0.00     0.060 C 
ATOM      5  C   UNL     1      29.026   0.611  53.691  1.00  0.00     0.042 C 
ATOM      6  C   UNL     1      27.234  -0.880  52.723  1.00  0.00     0.042 C 
ATOM      7  C   UNL     1      26.925   0.174  54.963  1.00  0.00     0.042 C 
ENDBRANCH   3   4
ENDBRANCH   2   3
ENDBRANCH   1   2
BRANCH   1   8
ATOM      8  C   UNL     1      24.288   2.146  52.880  1.00  0.00     0.253 C 
BRANCH   8   9
ATOM      9  N   UNL     1      23.307   1.077  52.970  1.00  0.00    -0.226 N 
ATOM     10  C   UNL     1      23.595  -0.172  53.478  1.00  0.00     0.204 A 
ATOM     11  C   UNL     1      21.990   1.045  52.581  1.00  0.00     0.434 A 
ATOM     12  C   UNL     1      22.431  -0.894  53.370  1.00  0.00     0.245 A 
ATOM     13  N   UNL     1      21.442  -0.138  52.804  1.00  0.00    -0.074 NA
BRANCH  11  14
ATOM     14  N   UNL     1      21.264   2.137  51.986  1.00  0.00    -0.047 N 
ATOM     15  O   UNL     1      20.590   2.853  52.738  1.00  0.00    -0.390 OA
ATOM     16  O   UNL     1      21.337   2.271  50.756  1.00  0.00    -0.390 OA
ENDBRANCH  11  14
ENDBRANCH   8   9
ENDBRANCH   1   8
BRANCH   1  17
ATOM     17  O   UNL     1      25.358   3.569  51.196  1.00  0.00    -0.453 OA
BRANCH  17  18
ATOM     18  C   UNL     1      25.014   3.942  49.937  1.00  0.00     0.338 C 
ATOM     19  O   UNL     1      23.998   3.603  49.353  1.00  0.00    -0.246 OA
BRANCH  18  20
ATOM     20  C   UNL     1      26.026   4.868  49.367  1.00  0.00     0.060 A 
ATOM     21  C   UNL     1      27.259   4.339  48.974  1.00  0.00     0.018 A 
ATOM     22  C   UNL     1      25.791   6.237  49.210  1.00  0.00     0.018 A 
ATOM     23  C   UNL     1      28.246   5.170  48.427  1.00  0.00     0.027 A 
ATOM     24  C   UNL     1      26.785   7.060  48.667  1.00  0.00     0.027 A 
ATOM     25  C   UNL     1      28.028   6.543  48.268  1.00  0.00     0.038 A 
BRANCH  25  26
ATOM     26  N   UNL     1      28.973   7.425  47.718  1.00  0.00    -0.361 N 
ATOM     27  H   UNL     1      29.906   7.034  47.566  1.00  0.00     0.166 HD
BRANCH  26  28
ATOM     28  C   UNL     1      28.818   8.726  47.306  1.00  0.00     0.099 C 
ATOM     29  C   UNL     1      29.429   9.804  47.808  1.00  0.00     0.085 C 
ATOM     30  C   UNL     1      29.246  11.186  47.351  1.00  0.00     0.191 C 
ATOM     31  C   UNL     1      30.399   9.829  48.910  1.00  0.00     0.191 C 
ATOM     32  O   UNL     1      28.530  11.595  46.462  1.00  0.00    -0.289 OA
ATOM     33  C   UNL     1      30.127  12.011  48.201  1.00  0.00     0.057 C 
ATOM     34  C   UNL     1      30.780  11.242  49.084  1.00  0.00     0.057 C 
ATOM     35  O   UNL     1      30.816   8.889  49.557  1.00  0.00    -0.289 OA
ENDBRANCH  26  28
ENDBRANCH  25  26
ENDBRANCH  18  20
ENDBRANCH  17  18
ENDBRANCH   1  17
TORSDOF 11
ENDMDL
MODEL 7
REMARK VINA RESULT:    -7.367      4.054     10.639
REMARK INTER + INTRA:         -13.824
REMARK INTER:                 -12.222
REMARK INTRA:                  -1.602
REMARK UNBOUND:                -1.720
REMARK SMILES CC(C)(C)OC[C@@H](Cn1ccnc1[N+](=O)[O-])OC(=O)c1ccc(NC=C2C(=O)C=CC2=O)cc1
REMARK SMILES IDX 7 1 6 2 5 3 2 4 1 5 3 6 4 7 8 8 9 9 10 10 13 11 11 12 12 13
REMARK SMILES IDX 14 14 15 15 16 16 17 17 18 18 19 19 20 20 21 21 34 22 22 23
REMARK SMILES IDX 33 24 23 25 24 26 25 28 26 29 27 30 31 31 28 32 29 33 30 34
REMARK SMILES IDX 32 35
REMARK H PARENT 24 27
ROOT
ATOM      1  C   UNL     1      23.666   2.803  52.056  1.00  0.00     0.237 C 
ENDROOT
BRANCH   1   2
ATOM      2  C   UNL     1      24.525   2.537  53.302  1.00  0.00     0.209 C 
BRANCH   2   3
ATOM      3  O   UNL     1      24.890   1.164  53.350  1.00  0.00    -0.372 OA
BRANCH   3   4
ATOM      4  C   UNL     1      26.291   0.856  53.411  1.00  0.00     0.060 C 
ATOM      5  C   UNL     1      27.142   2.129  53.357  1.00  0.00     0.042 C 
ATOM      6  C   UNL     1      26.708  -0.127  52.310  1.00  0.00     0.042 C 
ATOM      7  C   UNL     1      26.490   0.184  54.777  1.00  0.00     0.042 C 
ENDBRANCH   3   4
ENDBRANCH   2   3
ENDBRANCH   1   2
BRANCH   1   8
ATOM      8  C   UNL     1      24.320   3.879  51.171  1.00  0.00     0.253 C 
BRANCH   8   9
ATOM      9  N   UNL     1      23.520   5.078  50.982  1.00  0.00    -0.226 N 
ATOM     10  C   UNL     1      22.208   5.184  51.395  1.00  0.00     0.204 A 
ATOM     11  C   UNL     1      23.836   6.270  50.378  1.00  0.00     0.434 A 
ATOM     12  C   UNL     1      21.802   6.441  51.018  1.00  0.00     0.245 A 
ATOM     13  N   UNL     1      22.812   7.106  50.379  1.00  0.00    -0.074 NA
BRANCH  11  14
ATOM     14  N   UNL     1      25.109   6.602  49.791  1.00  0.00    -0.047 N 
ATOM     15  O   UNL     1      25.871   7.324  50.447  1.00  0.00    -0.390 OA
ATOM     16  O   UNL     1      25.346   6.168  48.655  1.00  0.00    -0.390 OA
ENDBRANCH  11  14
ENDBRANCH   8   9
ENDBRANCH   1   8
BRANCH   1  17
ATOM     17  O   UNL     1      23.577   1.550  51.336  1.00  0.00    -0.453 OA
BRANCH  17  18
ATOM     18  C   UNL     1      22.451   1.371  50.598  1.00  0.00     0.338 C 
ATOM     19  O   UNL     1      22.329   1.652  49.418  1.00  0.00    -0.246 OA
BRANCH  18  20
ATOM     20  C   UNL     1      21.383   0.736  51.413  1.00  0.00     0.060 A 
ATOM     21  C   UNL     1      21.763  -0.090  52.474  1.00  0.00     0.018 A 
ATOM     22  C   UNL     1      20.023   0.933  51.157  1.00  0.00     0.018 A 
ATOM     23  C   UNL     1      20.794  -0.709  53.275  1.00  0.00     0.027 A 
ATOM     24  C   UNL     1      19.062   0.307  51.960  1.00  0.00     0.027 A 
ATOM     25  C   UNL     1      19.429  -0.525  53.030  1.00  0.00     0.038 A 
BRANCH  25  26
ATOM     26  N   UNL     1      18.412  -1.110  53.801  1.00  0.00    -0.361 N 
ATOM     27  H   UNL     1      17.909  -0.474  54.426  1.00  0.00     0.166 HD
BRANCH  26  28
ATOM     28  C   UNL     1      17.953  -2.405  53.806  1.00  0.00     0.099 C 
ATOM     29  C   UNL     1      16.853  -2.868  53.205  1.00  0.00     0.085 C 
ATOM     30  C   UNL     1      16.382  -4.258  53.226  1.00  0.00     0.191 C 
ATOM     31  C   UNL     1      15.897  -2.092  52.406  1.00  0.00     0.191 C 
ATOM     32  O   UNL     1      16.886  -5.213  53.777  1.00  0.00    -0.289 OA
ATOM     33  C   UNL     1      15.142  -4.275  52.425  1.00  0.00     0.057 C 
ATOM     34  C   UNL     1      14.867  -3.048  51.961  1.00  0.00     0.057 C 
ATOM     35  O   UNL     1      15.931  -0.904  52.151  1.00  0.00    -0.289 OA
ENDBRANCH  26  28
ENDBRANCH  25  26
ENDBRANCH  18  20
ENDBRANCH  17  18
ENDBRANCH   1  17
TORSDOF 11
ENDMDL
MODEL 8
REMARK VINA RESULT:    -7.303      4.960      7.006
REMARK INTER + INTRA:         -13.719
REMARK INTER:                 -12.168
REMARK INTRA:                  -1.551
REMARK UNBOUND:                -1.720
REMARK SMILES CC(C)(C)OC[C@@H](Cn1ccnc1[N+](=O)[O-])OC(=O)c1ccc(NC=C2C(=O)C=CC2=O)cc1
REMARK SMILES IDX 7 1 6 2 5 3 2 4 1 5 3 6 4 7 8 8 9 9 10 10 13 11 11 12 12 13
REMARK SMILES IDX 14 14 15 15 16 16 17 17 18 18 19 19 20 20 21 21 34 22 22 23
REMARK SMILES IDX 33 24 23 25 24 26 25 28 26 29 27 30 31 31 28 32 29 33 30 34
REMARK SMILES IDX 32 35
REMARK H PARENT 24 27
ROOT
ATOM      1  C   UNL     1      18.572   1.710  50.956  1.00  0.00     0.237 C 
ENDROOT
BRANCH   1   2
ATOM      2  C   UNL     1      19.230   2.684  49.966  1.00  0.00     0.209 C 
BRANCH   2   3
ATOM      3  O   UNL     1      20.380   2.080  49.389  1.00  0.00    -0.372 OA
BRANCH   3   4
ATOM      4  C   UNL     1      21.185   2.890  48.519  1.00  0.00     0.060 C 
ATOM      5  C   UNL     1      21.994   3.922  49.314  1.00  0.00     0.042 C 
ATOM      6  C   UNL     1      20.345   3.574  47.434  1.00  0.00     0.042 C 
ATOM      7  C   UNL     1      22.157   1.909  47.849  1.00  0.00     0.042 C 
ENDBRANCH   3   4
ENDBRANCH   2   3
ENDBRANCH   1   2
BRANCH   1   8
ATOM      8  C   UNL     1      17.187   1.278  50.444  1.00  0.00     0.253 C 
BRANCH   8   9
ATOM      9  N   UNL     1      16.138   1.289  51.452  1.00  0.00    -0.226 N 
ATOM     10  C   UNL     1      15.661   0.146  52.058  1.00  0.00     0.204 A 
ATOM     11  C   UNL     1      15.418   2.336  51.971  1.00  0.00     0.434 A 
ATOM     12  C   UNL     1      14.675   0.566  52.917  1.00  0.00     0.245 A 
ATOM     13  N   UNL     1      14.521   1.924  52.851  1.00  0.00    -0.074 NA
BRANCH  11  14
ATOM     14  N   UNL     1      15.577   3.723  51.616  1.00  0.00    -0.047 N 
ATOM     15  O   UNL     1      16.110   4.469  52.448  1.00  0.00    -0.390 OA
ATOM     16  O   UNL     1      15.143   4.086  50.514  1.00  0.00    -0.390 OA
ENDBRANCH  11  14
ENDBRANCH   8   9
ENDBRANCH   1   8
BRANCH   1  17
ATOM     17  O   UNL     1      19.449   0.562  51.054  1.00  0.00    -0.453 OA
BRANCH  17  18
ATOM     18  C   UNL     1      19.781   0.179  52.314  1.00  0.00     0.338 C 
ATOM     19  O   UNL     1      18.996  -0.203  53.166  1.00  0.00    -0.246 OA
BRANCH  18  20
ATOM     20  C   UNL     1      21.252   0.240  52.513  1.00  0.00     0.060 A 
ATOM     21  C   UNL     1      21.849  -0.717  53.338  1.00  0.00     0.018 A 
ATOM     22  C   UNL     1      22.054   1.214  51.909  1.00  0.00     0.018 A 
ATOM     23  C   UNL     1      23.233  -0.704  53.554  1.00  0.00     0.027 A 
ATOM     24  C   UNL     1      23.435   1.221  52.135  1.00  0.00     0.027 A 
ATOM     25  C   UNL     1      24.049   0.265  52.961  1.00  0.00     0.038 A 
BRANCH  25  26
ATOM     26  N   UNL     1      25.441   0.325  53.132  1.00  0.00    -0.361 N 
ATOM     27  H   UNL     1      25.817   1.245  53.378  1.00  0.00     0.166 HD
BRANCH  26  28
ATOM     28  C   UNL     1      26.375  -0.681  53.068  1.00  0.00     0.099 C 
ATOM     29  C   UNL     1      27.689  -0.569  53.280  1.00  0.00     0.085 C 
ATOM     30  C   UNL     1      28.668  -1.660  53.205  1.00  0.00     0.191 C 
ATOM     31  C   UNL     1      28.420   0.655  53.631  1.00  0.00     0.191 C 
ATOM     32  O   UNL     1      28.473  -2.827  52.942  1.00  0.00    -0.289 OA
ATOM     33  C   UNL     1      29.976  -1.050  53.520  1.00  0.00     0.057 C 
ATOM     34  C   UNL     1      29.835   0.261  53.761  1.00  0.00     0.057 C 
ATOM     35  O   UNL     1      27.970   1.772  53.787  1.00  0.00    -0.289 OA
ENDBRANCH  26  28
ENDBRANCH  25  26
ENDBRANCH  18  20
ENDBRANCH  17  18
ENDBRANCH   1  17
TORSDOF 11
ENDMDL
MODEL 9
REMARK VINA RESULT:    -7.205      4.323     10.880
REMARK INTER + INTRA:         -13.558
REMARK INTER:                 -11.861
REMARK INTRA:                  -1.697
REMARK UNBOUND:                -1.720
REMARK SMILES CC(C)(C)OC[C@@H](Cn1ccnc1[N+](=O)[O-])OC(=O)c1ccc(NC=C2C(=O)C=CC2=O)cc1
REMARK SMILES IDX 7 1 6 2 5 3 2 4 1 5 3 6 4 7 8 8 9 9 10 10 13 11 11 12 12 13
REMARK SMILES IDX 14 14 15 15 16 16 17 17 18 18 19 19 20 20 21 21 34 22 22 23
REMARK SMILES IDX 33 24 23 25 24 26 25 28 26 29 27 30 31 31 28 32 29 33 30 34
REMARK SMILES IDX 32 35
REMARK H PARENT 24 27
ROOT
ATOM      1  C   UNL     1      24.346   0.529  52.803  1.00  0.00     0.237 C 
ENDROOT
BRANCH   1   2
ATOM      2  C   UNL     1      24.304   1.508  51.619  1.00  0.00     0.209 C 
BRANCH   2   3
ATOM      3  O   UNL     1      23.628   2.698  52.002  1.00  0.00    -0.372 OA
BRANCH   3   4
ATOM      4  C   UNL     1      23.081   3.513  50.955  1.00  0.00     0.060 C 
ATOM      5  C   UNL     1      22.396   2.655  49.886  1.00  0.00     0.042 C 
ATOM      6  C   UNL     1      24.142   4.424  50.327  1.00  0.00     0.042 C 
ATOM      7  C   UNL     1      22.022   4.385  51.643  1.00  0.00     0.042 C 
ENDBRANCH   3   4
ENDBRANCH   2   3
ENDBRANCH   1   2
BRANCH   1   8
ATOM      8  C   UNL     1      25.572   0.810  53.689  1.00  0.00     0.253 C 
BRANCH   8   9
ATOM      9  N   UNL     1      26.730  -0.023  53.405  1.00  0.00    -0.226 N 
ATOM     10  C   UNL     1      26.633  -1.338  53.002  1.00  0.00     0.204 A 
ATOM     11  C   UNL     1      28.070   0.262  53.490  1.00  0.00     0.434 A 
ATOM     12  C   UNL     1      27.928  -1.778  52.862  1.00  0.00     0.245 A 
ATOM     13  N   UNL     1      28.814  -0.786  53.176  1.00  0.00    -0.074 NA
BRANCH  11  14
ATOM     14  N   UNL     1      28.637   1.526  53.884  1.00  0.00    -0.047 N 
ATOM     15  O   UNL     1      29.341   1.545  54.902  1.00  0.00    -0.390 OA
ATOM     16  O   UNL     1      28.359   2.518  53.195  1.00  0.00    -0.390 OA
ENDBRANCH  11  14
ENDBRANCH   8   9
ENDBRANCH   1   8
BRANCH   1  17
ATOM     17  O   UNL     1      23.127   0.734  53.556  1.00  0.00    -0.453 OA
BRANCH  17  18
ATOM     18  C   UNL     1      22.468  -0.392  53.932  1.00  0.00     0.338 C 
ATOM     19  O   UNL     1      22.911  -1.256  54.670  1.00  0.00    -0.246 OA
BRANCH  18  20
ATOM     20  C   UNL     1      21.098  -0.417  53.358  1.00  0.00     0.060 A 
ATOM     21  C   UNL     1      20.149  -1.258  53.948  1.00  0.00     0.018 A 
ATOM     22  C   UNL     1      20.727   0.363  52.259  1.00  0.00     0.018 A 
ATOM     23  C   UNL     1      18.843  -1.315  53.446  1.00  0.00     0.027 A 
ATOM     24  C   UNL     1      19.420   0.296  51.763  1.00  0.00     0.027 A 
ATOM     25  C   UNL     1      18.456  -0.544  52.345  1.00  0.00     0.038 A 
BRANCH  25  26
ATOM     26  N   UNL     1      17.161  -0.550  51.802  1.00  0.00    -0.361 N 
ATOM     27  H   UNL     1      17.104  -0.727  50.795  1.00  0.00     0.166 HD
BRANCH  26  28
ATOM     28  C   UNL     1      15.948  -0.404  52.431  1.00  0.00     0.099 C 
ATOM     29  C   UNL     1      15.234   0.719  52.543  1.00  0.00     0.085 C 
ATOM     30  C   UNL     1      13.939   0.850  53.221  1.00  0.00     0.191 C 
ATOM     31  C   UNL     1      15.590   2.042  52.016  1.00  0.00     0.191 C 
ATOM     32  O   UNL     1      13.298  -0.009  53.790  1.00  0.00    -0.289 OA
ATOM     33  C   UNL     1      13.550   2.267  53.077  1.00  0.00     0.057 C 
ATOM     34  C   UNL     1      14.485   2.942  52.394  1.00  0.00     0.057 C 
ATOM     35  O   UNL     1      16.586   2.352  51.393  1.00  0.00    -0.289 OA
ENDBRANCH  26  28
ENDBRANCH  25  26
ENDBRANCH  18  20
ENDBRANCH  17  18
ENDBRANCH   1  17
TORSDOF 11
ENDMDL
