MODEL 1
REMARK VINA RESULT:    -8.420      0.000      0.000
REMARK INTER + INTRA:         -14.070
REMARK INTER:                 -12.358
REMARK INTRA:                  -1.712
REMARK UNBOUND:                -1.712
REMARK SMILES CN(C)C/C=C/C(=O)Nc1cc2c(Nc3ccc(F)c(Cl)c3)ncnc2cc1O[C@H]1CCOC1
REMARK SMILES IDX 7 1 8 2 9 3 6 5 5 6 4 7 2 8 1 9 3 10 10 11 11 12 28 13 12 14
REMARK SMILES IDX 27 15 13 16 26 17 23 18 25 19 24 20 29 21 30 22 31 23 34 24
REMARK SMILES IDX 32 25 33 26 14 27 15 29 16 30 22 31 17 32 20 33 18 34 21 35
REMARK SMILES IDX 19 36
REMARK H PARENT 9 4 14 28
ROOT
ATOM      1  C   UNL     1      25.349   5.238  49.652  1.00  0.00     0.248 C 
ATOM      2  O   UNL     1      24.787   5.851  50.552  1.00  0.00    -0.270 OA
ATOM      3  N   UNL     1      25.059   3.974  49.201  1.00  0.00    -0.319 N 
ATOM      4  H   UNL     1      25.517   3.651  48.355  1.00  0.00     0.170 HD
ENDROOT
BRANCH   1   5
ATOM      5  C   UNL     1      26.417   5.926  48.876  1.00  0.00     0.068 C 
ATOM      6  C   UNL     1      27.642   5.414  48.672  1.00  0.00    -0.006 C 
BRANCH   6   7
ATOM      7  C   UNL     1      28.820   6.010  47.944  1.00  0.00     0.111 C 
BRANCH   7   8
ATOM      8  N   UNL     1      30.143   6.076  48.548  1.00  0.00    -0.306 NA
ATOM      9  C   UNL     1      30.628   7.423  48.812  1.00  0.00     0.105 C 
ATOM     10  C   UNL     1      31.141   5.207  47.948  1.00  0.00     0.105 C 
ENDBRANCH   7   8
ENDBRANCH   6   7
ENDBRANCH   1   5
BRANCH   3  11
ATOM     11  C   UNL     1      24.129   3.053  49.731  1.00  0.00     0.085 A 
ATOM     12  C   UNL     1      24.291   2.416  50.959  1.00  0.00     0.044 A 
ATOM     13  C   UNL     1      22.992   2.772  48.957  1.00  0.00     0.145 A 
ATOM     14  C   UNL     1      23.318   1.506  51.446  1.00  0.00     0.045 A 
ATOM     15  C   UNL     1      22.052   1.853  49.428  1.00  0.00     0.077 A 
ATOM     16  C   UNL     1      23.381   0.835  52.686  1.00  0.00     0.141 A 
ATOM     17  C   UNL     1      22.195   1.221  50.658  1.00  0.00     0.080 A 
ATOM     18  N   UNL     1      22.430  -0.039  53.064  1.00  0.00    -0.219 NA
ATOM     19  N   UNL     1      21.247   0.362  51.036  1.00  0.00    -0.236 NA
ATOM     20  C   UNL     1      21.413  -0.232  52.221  1.00  0.00     0.224 A 
BRANCH  13  21
ATOM     21  O   UNL     1      22.913   3.449  47.763  1.00  0.00    -0.486 OA
BRANCH  21  22
ATOM     22  C   UNL     1      21.743   4.232  47.489  1.00  0.00     0.201 C 
ATOM     23  C   UNL     1      21.944   5.585  48.141  1.00  0.00     0.076 C 
ATOM     24  C   UNL     1      21.663   4.613  46.015  1.00  0.00     0.205 C 
ATOM     25  C   UNL     1      22.815   6.300  47.132  1.00  0.00     0.164 C 
ATOM     26  O   UNL     1      22.413   5.832  45.840  1.00  0.00    -0.377 OA
ENDBRANCH  21  22
ENDBRANCH  13  21
BRANCH  16  27
ATOM     27  N   UNL     1      24.480   1.089  53.551  1.00  0.00    -0.340 N 
ATOM     28  H   UNL     1      24.159   1.077  54.514  1.00  0.00     0.168 HD
BRANCH  27  29
ATOM     29  C   UNL     1      25.820   0.656  53.439  1.00  0.00     0.041 A 
ATOM     30  C   UNL     1      26.073  -0.628  52.926  1.00  0.00     0.029 A 
ATOM     31  C   UNL     1      26.905   1.399  53.924  1.00  0.00     0.049 A 
ATOM     32  C   UNL     1      27.375  -1.129  52.839  1.00  0.00     0.043 A 
ATOM     33  C   UNL     1      28.208   0.901  53.837  1.00  0.00     0.078 A 
ATOM     34  C   UNL     1      28.437  -0.357  53.291  1.00  0.00     0.141 A 
ATOM     35  Cl  UNL     1      29.521   1.853  54.422  1.00  0.00    -0.081 Cl
ATOM     36  F   UNL     1      29.679  -0.854  53.202  1.00  0.00    -0.205 F 
ENDBRANCH  27  29
ENDBRANCH  16  27
ENDBRANCH   3  11
TORSDOF 8
ENDMDL
MODEL 2
REMARK VINA RESULT:    -8.394      1.263      1.544
REMARK INTER + INTRA:         -14.032
REMARK INTER:                 -12.416
REMARK INTRA:                  -1.616
REMARK UNBOUND:                -1.712
REMARK SMILES CN(C)C/C=C/C(=O)Nc1cc2c(Nc3ccc(F)c(Cl)c3)ncnc2cc1O[C@H]1CCOC1
REMARK SMILES IDX 7 1 8 2 9 3 6 5 5 6 4 7 2 8 1 9 3 10 10 11 11 12 28 13 12 14
REMARK SMILES IDX 27 15 13 16 26 17 23 18 25 19 24 20 29 21 30 22 31 23 34 24
REMARK SMILES IDX 32 25 33 26 14 27 15 29 16 30 22 31 17 32 20 33 18 34 21 35
REMARK SMILES IDX 19 36
REMARK H PARENT 9 4 14 28
ROOT
ATOM      1  C   UNL     1      25.338   5.451  49.673  1.00  0.00     0.248 C 
ATOM      2  O   UNL     1      24.781   6.062  50.579  1.00  0.00    -0.270 OA
ATOM      3  N   UNL     1      25.175   4.130  49.340  1.00  0.00    -0.319 N 
ATOM      4  H   UNL     1      25.597   3.799  48.478  1.00  0.00     0.170 HD
ENDROOT
BRANCH   1   5
ATOM      5  C   UNL     1      26.239   6.200  48.754  1.00  0.00     0.068 C 
ATOM      6  C   UNL     1      27.549   5.941  48.617  1.00  0.00    -0.006 C 
BRANCH   6   7
ATOM      7  C   UNL     1      28.577   6.634  47.759  1.00  0.00     0.111 C 
BRANCH   7   8
ATOM      8  N   UNL     1      29.607   7.489  48.334  1.00  0.00    -0.306 NA
ATOM      9  C   UNL     1      29.111   8.699  48.971  1.00  0.00     0.105 C 
ATOM     10  C   UNL     1      30.768   7.713  47.489  1.00  0.00     0.105 C 
ENDBRANCH   7   8
ENDBRANCH   6   7
ENDBRANCH   1   5
BRANCH   3  11
ATOM     11  C   UNL     1      24.418   3.148  50.017  1.00  0.00     0.085 A 
ATOM     12  C   UNL     1      24.807   2.577  51.226  1.00  0.00     0.044 A 
ATOM     13  C   UNL     1      23.220   2.733  49.415  1.00  0.00     0.145 A 
ATOM     14  C   UNL     1      24.001   1.600  51.866  1.00  0.00     0.045 A 
ATOM     15  C   UNL     1      22.446   1.750  50.035  1.00  0.00     0.077 A 
ATOM     16  C   UNL     1      24.295   0.987  53.103  1.00  0.00     0.141 A 
ATOM     17  C   UNL     1      22.815   1.182  51.249  1.00  0.00     0.080 A 
ATOM     18  N   UNL     1      23.494   0.044  53.631  1.00  0.00    -0.219 NA
ATOM     19  N   UNL     1      22.014   0.255  51.777  1.00  0.00    -0.236 NA
ATOM     20  C   UNL     1      22.396  -0.275  52.943  1.00  0.00     0.224 A 
BRANCH  13  21
ATOM     21  O   UNL     1      22.915   3.353  48.226  1.00  0.00    -0.486 OA
BRANCH  21  22
ATOM     22  C   UNL     1      21.656   4.028  48.102  1.00  0.00     0.201 C 
ATOM     23  C   UNL     1      21.935   5.517  48.163  1.00  0.00     0.076 C 
ATOM     24  C   UNL     1      21.083   3.883  46.696  1.00  0.00     0.205 C 
ATOM     25  C   UNL     1      22.379   5.817  46.749  1.00  0.00     0.164 C 
ATOM     26  O   UNL     1      21.633   4.945  45.892  1.00  0.00    -0.377 OA
ENDBRANCH  21  22
ENDBRANCH  13  21
BRANCH  16  27
ATOM     27  N   UNL     1      25.472   1.375  53.801  1.00  0.00    -0.340 N 
ATOM     28  H   UNL     1      25.220   1.696  54.731  1.00  0.00     0.168 HD
BRANCH  27  29
ATOM     29  C   UNL     1      26.755   0.787  53.779  1.00  0.00     0.041 A 
ATOM     30  C   UNL     1      27.877   1.607  53.998  1.00  0.00     0.029 A 
ATOM     31  C   UNL     1      26.975  -0.553  53.433  1.00  0.00     0.049 A 
ATOM     32  C   UNL     1      29.174   1.089  53.939  1.00  0.00     0.043 A 
ATOM     33  C   UNL     1      28.271  -1.074  53.373  1.00  0.00     0.078 A 
ATOM     34  C   UNL     1      29.362  -0.252  53.632  1.00  0.00     0.141 A 
ATOM     35  Cl  UNL     1      28.501  -2.733  52.968  1.00  0.00    -0.081 Cl
ATOM     36  F   UNL     1      30.614  -0.730  53.576  1.00  0.00    -0.205 F 
ENDBRANCH  27  29
ENDBRANCH  16  27
ENDBRANCH   3  11
TORSDOF 8
ENDMDL
MODEL 3
REMARK VINA RESULT:    -8.233      3.817      7.227
REMARK INTER + INTRA:         -13.796
REMARK INTER:                 -12.256
REMARK INTRA:                  -1.540
REMARK UNBOUND:                -1.712
REMARK SMILES CN(C)C/C=C/C(=O)Nc1cc2c(Nc3ccc(F)c(Cl)c3)ncnc2cc1O[C@H]1CCOC1
REMARK SMILES IDX 7 1 8 2 9 3 6 5 5 6 4 7 2 8 1 9 3 10 10 11 11 12 28 13 12 14
REMARK SMILES IDX 27 15 13 16 26 17 23 18 25 19 24 20 29 21 30 22 31 23 34 24
REMARK SMILES IDX 32 25 33 26 14 27 15 29 16 30 22 31 17 32 20 33 18 34 21 35
REMARK SMILES IDX 19 36
REMARK H PARENT 9 4 14 28
ROOT
ATOM      1  C   UNL     1      25.161   2.714  52.551  1.00  0.00     0.248 C 
ATOM      2  O   UNL     1      25.411   2.438  51.383  1.00  0.00    -0.270 OA
ATOM      3  N   UNL     1      24.252   3.634  53.012  1.00  0.00    -0.319 N 
ATOM      4  H   UNL     1      24.053   3.652  54.007  1.00  0.00     0.170 HD
ENDROOT
BRANCH   1   5
ATOM      5  C   UNL     1      25.831   1.935  53.629  1.00  0.00     0.068 C 
ATOM      6  C   UNL     1      26.604   0.860  53.405  1.00  0.00    -0.006 C 
BRANCH   6   7
ATOM      7  C   UNL     1      27.309  -0.035  54.391  1.00  0.00     0.111 C 
BRANCH   7   8
ATOM      8  N   UNL     1      28.753   0.012  54.577  1.00  0.00    -0.306 NA
ATOM      9  C   UNL     1      29.332   1.346  54.528  1.00  0.00     0.105 C 
ATOM     10  C   UNL     1      29.506  -0.975  53.823  1.00  0.00     0.105 C 
ENDBRANCH   7   8
ENDBRANCH   6   7
ENDBRANCH   1   5
BRANCH   3  11
ATOM     11  C   UNL     1      23.478   4.543  52.259  1.00  0.00     0.085 A 
ATOM     12  C   UNL     1      23.963   5.761  51.788  1.00  0.00     0.044 A 
ATOM     13  C   UNL     1      22.147   4.186  51.992  1.00  0.00     0.145 A 
ATOM     14  C   UNL     1      23.141   6.632  51.029  1.00  0.00     0.045 A 
ATOM     15  C   UNL     1      21.333   5.061  51.269  1.00  0.00     0.077 A 
ATOM     16  C   UNL     1      23.550   7.870  50.486  1.00  0.00     0.141 A 
ATOM     17  C   UNL     1      21.810   6.273  50.781  1.00  0.00     0.080 A 
ATOM     18  N   UNL     1      22.701   8.655  49.801  1.00  0.00    -0.219 NA
ATOM     19  N   UNL     1      20.969   7.046  50.093  1.00  0.00    -0.236 NA
ATOM     20  C   UNL     1      21.454   8.206  49.640  1.00  0.00     0.224 A 
BRANCH  13  21
ATOM     21  O   UNL     1      21.755   2.966  52.492  1.00  0.00    -0.486 OA
BRANCH  21  22
ATOM     22  C   UNL     1      21.146   2.019  51.604  1.00  0.00     0.201 C 
ATOM     23  C   UNL     1      22.195   0.978  51.267  1.00  0.00     0.076 C 
ATOM     24  C   UNL     1      20.100   1.175  52.324  1.00  0.00     0.205 C 
ATOM     25  C   UNL     1      22.144   0.070  52.476  1.00  0.00     0.164 C 
ATOM     26  O   UNL     1      20.781   0.051  52.916  1.00  0.00    -0.377 OA
ENDBRANCH  21  22
ENDBRANCH  13  21
BRANCH  16  27
ATOM     27  N   UNL     1      24.894   8.293  50.676  1.00  0.00    -0.340 N 
ATOM     28  H   UNL     1      25.123   8.250  51.665  1.00  0.00     0.168 HD
BRANCH  27  29
ATOM     29  C   UNL     1      26.026   8.054  49.866  1.00  0.00     0.041 A 
ATOM     30  C   UNL     1      26.046   6.904  49.056  1.00  0.00     0.029 A 
ATOM     31  C   UNL     1      27.182   8.846  49.915  1.00  0.00     0.049 A 
ATOM     32  C   UNL     1      27.159   6.591  48.272  1.00  0.00     0.043 A 
ATOM     33  C   UNL     1      28.296   8.536  49.131  1.00  0.00     0.078 A 
ATOM     34  C   UNL     1      28.278   7.414  48.310  1.00  0.00     0.141 A 
ATOM     35  Cl  UNL     1      29.691   9.546  49.201  1.00  0.00    -0.081 Cl
ATOM     36  F   UNL     1      29.337   7.096  47.553  1.00  0.00    -0.205 F 
ENDBRANCH  27  29
ENDBRANCH  16  27
ENDBRANCH   3  11
TORSDOF 8
ENDMDL
MODEL 4
REMARK VINA RESULT:    -8.221      3.574      6.619
REMARK INTER + INTRA:         -13.778
REMARK INTER:                 -12.754
REMARK INTRA:                  -1.025
REMARK UNBOUND:                -1.712
REMARK SMILES CN(C)C/C=C/C(=O)Nc1cc2c(Nc3ccc(F)c(Cl)c3)ncnc2cc1O[C@H]1CCOC1
REMARK SMILES IDX 7 1 8 2 9 3 6 5 5 6 4 7 2 8 1 9 3 10 10 11 11 12 28 13 12 14
REMARK SMILES IDX 27 15 13 16 26 17 23 18 25 19 24 20 29 21 30 22 31 23 34 24
REMARK SMILES IDX 32 25 33 26 14 27 15 29 16 30 22 31 17 32 20 33 18 34 21 35
REMARK SMILES IDX 19 36
REMARK H PARENT 9 4 14 28
ROOT
ATOM      1  C   UNL     1      25.691   2.871  50.490  1.00  0.00     0.248 C 
ATOM      2  O   UNL     1      24.626   2.952  49.890  1.00  0.00    -0.270 OA
ATOM      3  N   UNL     1      25.977   2.077  51.573  1.00  0.00    -0.319 N 
ATOM      4  H   UNL     1      26.943   2.012  51.876  1.00  0.00     0.170 HD
ENDROOT
BRANCH   1   5
ATOM      5  C   UNL     1      26.861   3.637  49.978  1.00  0.00     0.068 C 
ATOM      6  C   UNL     1      26.771   4.614  49.060  1.00  0.00    -0.006 C 
BRANCH   6   7
ATOM      7  C   UNL     1      27.864   5.440  48.431  1.00  0.00     0.111 C 
BRANCH   7   8
ATOM      8  N   UNL     1      27.714   6.872  48.210  1.00  0.00    -0.306 NA
ATOM      9  C   UNL     1      28.958   7.587  47.969  1.00  0.00     0.105 C 
ATOM     10  C   UNL     1      26.825   7.551  49.138  1.00  0.00     0.105 C 
ENDBRANCH   7   8
ENDBRANCH   6   7
ENDBRANCH   1   5
BRANCH   3  11
ATOM     11  C   UNL     1      25.093   1.257  52.307  1.00  0.00     0.085 A 
ATOM     12  C   UNL     1      23.722   1.492  52.400  1.00  0.00     0.044 A 
ATOM     13  C   UNL     1      25.647   0.158  52.982  1.00  0.00     0.145 A 
ATOM     14  C   UNL     1      22.881   0.628  53.146  1.00  0.00     0.045 A 
ATOM     15  C   UNL     1      24.818  -0.672  53.739  1.00  0.00     0.077 A 
ATOM     16  C   UNL     1      21.482   0.767  53.274  1.00  0.00     0.141 A 
ATOM     17  C   UNL     1      23.447  -0.457  53.827  1.00  0.00     0.080 A 
ATOM     18  N   UNL     1      20.755  -0.078  54.026  1.00  0.00    -0.219 NA
ATOM     19  N   UNL     1      22.726  -1.302  54.565  1.00  0.00    -0.236 NA
ATOM     20  C   UNL     1      21.412  -1.068  54.634  1.00  0.00     0.224 A 
BRANCH  13  21
ATOM     21  O   UNL     1      27.005   0.002  52.832  1.00  0.00    -0.486 OA
BRANCH  21  22
ATOM     22  C   UNL     1      27.741  -0.672  53.863  1.00  0.00     0.201 C 
ATOM     23  C   UNL     1      29.105  -1.009  53.296  1.00  0.00     0.076 C 
ATOM     24  C   UNL     1      28.108   0.280  54.995  1.00  0.00     0.205 C 
ATOM     25  C   UNL     1      29.846   0.302  53.446  1.00  0.00     0.164 C 
ATOM     26  O   UNL     1      29.353   0.915  54.642  1.00  0.00    -0.377 OA
ENDBRANCH  21  22
ENDBRANCH  13  21
BRANCH  16  27
ATOM     27  N   UNL     1      20.831   1.832  52.593  1.00  0.00    -0.340 N 
ATOM     28  H   UNL     1      20.850   2.664  53.175  1.00  0.00     0.168 HD
BRANCH  27  29
ATOM     29  C   UNL     1      20.853   2.155  51.218  1.00  0.00     0.041 A 
ATOM     30  C   UNL     1      20.846   1.108  50.279  1.00  0.00     0.029 A 
ATOM     31  C   UNL     1      21.000   3.466  50.744  1.00  0.00     0.049 A 
ATOM     32  C   UNL     1      20.917   1.366  48.908  1.00  0.00     0.043 A 
ATOM     33  C   UNL     1      21.070   3.727  49.372  1.00  0.00     0.078 A 
ATOM     34  C   UNL     1      21.022   2.677  48.462  1.00  0.00     0.141 A 
ATOM     35  Cl  UNL     1      21.226   5.354  48.825  1.00  0.00    -0.081 Cl
ATOM     36  F   UNL     1      21.092   2.906  47.142  1.00  0.00    -0.205 F 
ENDBRANCH  27  29
ENDBRANCH  16  27
ENDBRANCH   3  11
TORSDOF 8
ENDMDL
MODEL 5
REMARK VINA RESULT:    -8.113      3.245      7.007
REMARK INTER + INTRA:         -13.620
REMARK INTER:                 -11.969
REMARK INTRA:                  -1.651
REMARK UNBOUND:                -1.712
REMARK SMILES CN(C)C/C=C/C(=O)Nc1cc2c(Nc3ccc(F)c(Cl)c3)ncnc2cc1O[C@H]1CCOC1
REMARK SMILES IDX 7 1 8 2 9 3 6 5 5 6 4 7 2 8 1 9 3 10 10 11 11 12 28 13 12 14
REMARK SMILES IDX 27 15 13 16 26 17 23 18 25 19 24 20 29 21 30 22 31 23 34 24
REMARK SMILES IDX 32 25 33 26 14 27 15 29 16 30 22 31 17 32 20 33 18 34 21 35
REMARK SMILES IDX 19 36
REMARK H PARENT 9 4 14 28
ROOT
ATOM      1  C   UNL     1      24.898   2.490  52.723  1.00  0.00     0.248 C 
ATOM      2  O   UNL     1      24.275   3.332  53.359  1.00  0.00    -0.270 OA
ATOM      3  N   UNL     1      25.122   2.471  51.368  1.00  0.00    -0.319 N 
ATOM      4  H   UNL     1      25.775   1.786  51.002  1.00  0.00     0.170 HD
ENDROOT
BRANCH   1   5
ATOM      5  C   UNL     1      25.576   1.390  53.463  1.00  0.00     0.068 C 
ATOM      6  C   UNL     1      26.679   0.763  53.024  1.00  0.00    -0.006 C 
BRANCH   6   7
ATOM      7  C   UNL     1      27.443  -0.378  53.646  1.00  0.00     0.111 C 
BRANCH   7   8
ATOM      8  N   UNL     1      28.782  -0.200  54.189  1.00  0.00    -0.306 NA
ATOM      9  C   UNL     1      29.175   1.184  54.407  1.00  0.00     0.105 C 
ATOM     10  C   UNL     1      29.817  -1.004  53.561  1.00  0.00     0.105 C 
ENDBRANCH   7   8
ENDBRANCH   6   7
ENDBRANCH   1   5
BRANCH   3  11
ATOM     11  C   UNL     1      24.605   3.346  50.389  1.00  0.00     0.085 A 
ATOM     12  C   UNL     1      25.205   4.555  50.042  1.00  0.00     0.044 A 
ATOM     13  C   UNL     1      23.415   2.963  49.749  1.00  0.00     0.145 A 
ATOM     14  C   UNL     1      24.645   5.390  49.043  1.00  0.00     0.045 A 
ATOM     15  C   UNL     1      22.852   3.804  48.787  1.00  0.00     0.077 A 
ATOM     16  C   UNL     1      25.194   6.615  48.605  1.00  0.00     0.141 A 
ATOM     17  C   UNL     1      23.449   5.006  48.422  1.00  0.00     0.080 A 
ATOM     18  N   UNL     1      24.584   7.367  47.671  1.00  0.00    -0.219 NA
ATOM     19  N   UNL     1      22.849   5.746  47.489  1.00  0.00    -0.236 NA
ATOM     20  C   UNL     1      23.444   6.897  47.161  1.00  0.00     0.224 A 
BRANCH  13  21
ATOM     21  O   UNL     1      22.896   1.755  50.152  1.00  0.00    -0.486 OA
BRANCH  21  22
ATOM     22  C   UNL     1      21.512   1.688  50.522  1.00  0.00     0.201 C 
ATOM     23  C   UNL     1      21.216   0.249  50.898  1.00  0.00     0.076 C 
ATOM     24  C   UNL     1      21.255   2.406  51.843  1.00  0.00     0.205 C 
ATOM     25  C   UNL     1      21.731   0.177  52.318  1.00  0.00     0.164 C 
ATOM     26  O   UNL     1      21.496   1.462  52.905  1.00  0.00    -0.377 OA
ENDBRANCH  21  22
ENDBRANCH  13  21
BRANCH  16  27
ATOM     27  N   UNL     1      26.418   7.061  49.172  1.00  0.00    -0.340 N 
ATOM     28  H   UNL     1      26.392   6.923  50.178  1.00  0.00     0.168 HD
BRANCH  27  29
ATOM     29  C   UNL     1      27.730   6.947  48.661  1.00  0.00     0.041 A 
ATOM     30  C   UNL     1      28.240   5.664  48.393  1.00  0.00     0.029 A 
ATOM     31  C   UNL     1      28.592   8.043  48.518  1.00  0.00     0.049 A 
ATOM     32  C   UNL     1      29.548   5.487  47.935  1.00  0.00     0.043 A 
ATOM     33  C   UNL     1      29.900   7.869  48.059  1.00  0.00     0.078 A 
ATOM     34  C   UNL     1      30.370   6.594  47.764  1.00  0.00     0.141 A 
ATOM     35  Cl  UNL     1      30.924   9.243  47.872  1.00  0.00    -0.081 Cl
ATOM     36  F   UNL     1      31.623   6.405  47.326  1.00  0.00    -0.205 F 
ENDBRANCH  27  29
ENDBRANCH  16  27
ENDBRANCH   3  11
TORSDOF 8
ENDMDL
MODEL 6
REMARK VINA RESULT:    -7.952      4.466      7.359
REMARK INTER + INTRA:         -13.383
REMARK INTER:                 -12.749
REMARK INTRA:                  -0.634
REMARK UNBOUND:                -1.712
REMARK SMILES CN(C)C/C=C/C(=O)Nc1cc2c(Nc3ccc(F)c(Cl)c3)ncnc2cc1O[C@H]1CCOC1
REMARK SMILES IDX 7 1 8 2 9 3 6 5 5 6 4 7 2 8 1 9 3 10 10 11 11 12 28 13 12 14
REMARK SMILES IDX 27 15 13 16 26 17 23 18 25 19 24 20 29 21 30 22 31 23 34 24
REMARK SMILES IDX 32 25 33 26 14 27 15 29 16 30 22 31 17 32 20 33 18 34 21 35
REMARK SMILES IDX 19 36
REMARK H PARENT 9 4 14 28
ROOT
ATOM      1  C   UNL     1      25.662   3.037  50.435  1.00  0.00     0.248 C 
ATOM      2  O   UNL     1      24.567   3.484  50.113  1.00  0.00    -0.270 OA
ATOM      3  N   UNL     1      25.914   1.992  51.290  1.00  0.00    -0.319 N 
ATOM      4  H   UNL     1      26.865   1.644  51.351  1.00  0.00     0.170 HD
ENDROOT
BRANCH   1   5
ATOM      5  C   UNL     1      26.882   3.601  49.794  1.00  0.00     0.068 C 
ATOM      6  C   UNL     1      26.888   4.723  49.056  1.00  0.00    -0.006 C 
BRANCH   6   7
ATOM      7  C   UNL     1      28.030   5.383  48.327  1.00  0.00     0.111 C 
BRANCH   7   8
ATOM      8  N   UNL     1      28.254   6.820  48.392  1.00  0.00    -0.306 NA
ATOM      9  C   UNL     1      27.120   7.595  48.872  1.00  0.00     0.105 C 
ATOM     10  C   UNL     1      28.900   7.399  47.226  1.00  0.00     0.105 C 
ENDBRANCH   7   8
ENDBRANCH   6   7
ENDBRANCH   1   5
BRANCH   3  11
ATOM     11  C   UNL     1      24.990   1.265  52.071  1.00  0.00     0.085 A 
ATOM     12  C   UNL     1      23.630   1.562  52.129  1.00  0.00     0.044 A 
ATOM     13  C   UNL     1      25.492   0.196  52.831  1.00  0.00     0.145 A 
ATOM     14  C   UNL     1      22.746   0.790  52.925  1.00  0.00     0.045 A 
ATOM     15  C   UNL     1      24.621  -0.541  53.636  1.00  0.00     0.077 A 
ATOM     16  C   UNL     1      21.353   0.995  53.025  1.00  0.00     0.141 A 
ATOM     17  C   UNL     1      23.260  -0.264  53.691  1.00  0.00     0.080 A 
ATOM     18  N   UNL     1      20.584   0.237  53.828  1.00  0.00    -0.219 NA
ATOM     19  N   UNL     1      22.497  -1.023  54.480  1.00  0.00    -0.236 NA
ATOM     20  C   UNL     1      21.194  -0.731  54.515  1.00  0.00     0.224 A 
BRANCH  13  21
ATOM     21  O   UNL     1      26.844  -0.025  52.709  1.00  0.00    -0.486 OA
BRANCH  21  22
ATOM     22  C   UNL     1      27.527  -0.714  53.765  1.00  0.00     0.201 C 
ATOM     23  C   UNL     1      28.928  -1.018  53.272  1.00  0.00     0.076 C 
ATOM     24  C   UNL     1      27.814   0.214  54.940  1.00  0.00     0.205 C 
ATOM     25  C   UNL     1      29.639   0.298  53.497  1.00  0.00     0.164 C 
ATOM     26  O   UNL     1      29.067   0.875  54.677  1.00  0.00    -0.377 OA
ENDBRANCH  21  22
ENDBRANCH  13  21
BRANCH  16  27
ATOM     27  N   UNL     1      20.754   2.033  52.260  1.00  0.00    -0.340 N 
ATOM     28  H   UNL     1      21.467   2.494  51.704  1.00  0.00     0.168 HD
BRANCH  27  29
ATOM     29  C   UNL     1      19.495   2.054  51.620  1.00  0.00     0.041 A 
ATOM     30  C   UNL     1      18.741   3.241  51.654  1.00  0.00     0.029 A 
ATOM     31  C   UNL     1      18.908   0.915  51.052  1.00  0.00     0.049 A 
ATOM     32  C   UNL     1      17.468   3.305  51.080  1.00  0.00     0.043 A 
ATOM     33  C   UNL     1      17.635   0.977  50.477  1.00  0.00     0.078 A 
ATOM     34  C   UNL     1      16.924   2.172  50.489  1.00  0.00     0.141 A 
ATOM     35  Cl  UNL     1      16.955  -0.439  49.767  1.00  0.00    -0.081 Cl
ATOM     36  F   UNL     1      15.701   2.252  49.947  1.00  0.00    -0.205 F 
ENDBRANCH  27  29
ENDBRANCH  16  27
ENDBRANCH   3  11
TORSDOF 8
ENDMDL
MODEL 7
REMARK VINA RESULT:    -7.872      2.501      3.710
REMARK INTER + INTRA:         -13.266
REMARK INTER:                 -11.639
REMARK INTRA:                  -1.627
REMARK UNBOUND:                -1.712
REMARK SMILES CN(C)C/C=C/C(=O)Nc1cc2c(Nc3ccc(F)c(Cl)c3)ncnc2cc1O[C@H]1CCOC1
REMARK SMILES IDX 7 1 8 2 9 3 6 5 5 6 4 7 2 8 1 9 3 10 10 11 11 12 28 13 12 14
REMARK SMILES IDX 27 15 13 16 26 17 23 18 25 19 24 20 29 21 30 22 31 23 34 24
REMARK SMILES IDX 32 25 33 26 14 27 15 29 16 30 22 31 17 32 20 33 18 34 21 35
REMARK SMILES IDX 19 36
REMARK H PARENT 9 4 14 28
ROOT
ATOM      1  C   UNL     1      22.415   3.222  49.145  1.00  0.00     0.248 C 
ATOM      2  O   UNL     1      22.308   2.141  48.577  1.00  0.00    -0.270 OA
ATOM      3  N   UNL     1      22.418   3.452  50.498  1.00  0.00    -0.319 N 
ATOM      4  H   UNL     1      22.657   4.383  50.824  1.00  0.00     0.170 HD
ENDROOT
BRANCH   1   5
ATOM      5  C   UNL     1      22.654   4.441  48.324  1.00  0.00     0.068 C 
ATOM      6  C   UNL     1      23.663   5.300  48.538  1.00  0.00    -0.006 C 
BRANCH   6   7
ATOM      7  C   UNL     1      24.001   6.580  47.815  1.00  0.00     0.111 C 
BRANCH   7   8
ATOM      8  N   UNL     1      25.151   7.391  48.186  1.00  0.00    -0.306 NA
ATOM      9  C   UNL     1      25.636   8.281  47.141  1.00  0.00     0.105 C 
ATOM     10  C   UNL     1      26.212   6.680  48.880  1.00  0.00     0.105 C 
ENDBRANCH   7   8
ENDBRANCH   6   7
ENDBRANCH   1   5
BRANCH   3  11
ATOM     11  C   UNL     1      22.193   2.525  51.539  1.00  0.00     0.085 A 
ATOM     12  C   UNL     1      23.124   1.564  51.928  1.00  0.00     0.044 A 
ATOM     13  C   UNL     1      20.954   2.585  52.196  1.00  0.00     0.145 A 
ATOM     14  C   UNL     1      22.847   0.664  52.987  1.00  0.00     0.045 A 
ATOM     15  C   UNL     1      20.676   1.677  53.219  1.00  0.00     0.077 A 
ATOM     16  C   UNL     1      23.735  -0.322  53.470  1.00  0.00     0.141 A 
ATOM     17  C   UNL     1      21.602   0.723  53.627  1.00  0.00     0.080 A 
ATOM     18  N   UNL     1      23.386  -1.160  54.462  1.00  0.00    -0.219 NA
ATOM     19  N   UNL     1      21.258  -0.102  54.617  1.00  0.00    -0.236 NA
ATOM     20  C   UNL     1      22.167  -1.010  54.984  1.00  0.00     0.224 A 
BRANCH  13  21
ATOM     21  O   UNL     1      20.100   3.566  51.749  1.00  0.00    -0.486 OA
BRANCH  21  22
ATOM     22  C   UNL     1      18.794   3.188  51.293  1.00  0.00     0.201 C 
ATOM     23  C   UNL     1      18.179   4.404  50.628  1.00  0.00     0.076 C 
ATOM     24  C   UNL     1      18.875   2.211  50.125  1.00  0.00     0.205 C 
ATOM     25  C   UNL     1      18.809   4.369  49.253  1.00  0.00     0.164 C 
ATOM     26  O   UNL     1      18.977   2.987  48.915  1.00  0.00    -0.377 OA
ENDBRANCH  21  22
ENDBRANCH  13  21
BRANCH  16  27
ATOM     27  N   UNL     1      25.027  -0.428  52.887  1.00  0.00    -0.340 N 
ATOM     28  H   UNL     1      24.940  -0.427  51.875  1.00  0.00     0.168 HD
BRANCH  27  29
ATOM     29  C   UNL     1      26.245   0.150  53.308  1.00  0.00     0.041 A 
ATOM     30  C   UNL     1      26.288   1.536  53.543  1.00  0.00     0.029 A 
ATOM     31  C   UNL     1      27.444  -0.571  53.391  1.00  0.00     0.049 A 
ATOM     32  C   UNL     1      27.477   2.170  53.913  1.00  0.00     0.043 A 
ATOM     33  C   UNL     1      28.635   0.060  53.761  1.00  0.00     0.078 A 
ATOM     34  C   UNL     1      28.644   1.425  54.026  1.00  0.00     0.141 A 
ATOM     35  Cl  UNL     1      30.085  -0.863  53.876  1.00  0.00    -0.081 Cl
ATOM     36  F   UNL     1      29.776   2.051  54.379  1.00  0.00    -0.205 F 
ENDBRANCH  27  29
ENDBRANCH  16  27
ENDBRANCH   3  11
TORSDOF 8
ENDMDL
MODEL 8
REMARK VINA RESULT:    -7.782      1.693      2.004
REMARK INTER + INTRA:         -13.134
REMARK INTER:                 -11.674
REMARK INTRA:                  -1.460
REMARK UNBOUND:                -1.712
REMARK SMILES CN(C)C/C=C/C(=O)Nc1cc2c(Nc3ccc(F)c(Cl)c3)ncnc2cc1O[C@H]1CCOC1
REMARK SMILES IDX 7 1 8 2 9 3 6 5 5 6 4 7 2 8 1 9 3 10 10 11 11 12 28 13 12 14
REMARK SMILES IDX 27 15 13 16 26 17 23 18 25 19 24 20 29 21 30 22 31 23 34 24
REMARK SMILES IDX 32 25 33 26 14 27 15 29 16 30 22 31 17 32 20 33 18 34 21 35
REMARK SMILES IDX 19 36
REMARK H PARENT 9 4 14 28
ROOT
ATOM      1  C   UNL     1      24.754   4.224  50.520  1.00  0.00     0.248 C 
ATOM      2  O   UNL     1      24.174   4.920  51.345  1.00  0.00    -0.270 OA
ATOM      3  N   UNL     1      24.519   2.901  50.237  1.00  0.00    -0.319 N 
ATOM      4  H   UNL     1      24.982   2.495  49.430  1.00  0.00     0.170 HD
ENDROOT
BRANCH   1   5
ATOM      5  C   UNL     1      25.779   4.856  49.644  1.00  0.00     0.068 C 
ATOM      6  C   UNL     1      25.899   6.182  49.472  1.00  0.00    -0.006 C 
BRANCH   6   7
ATOM      7  C   UNL     1      26.858   6.951  48.598  1.00  0.00     0.111 C 
BRANCH   7   8
ATOM      8  N   UNL     1      27.110   8.371  48.799  1.00  0.00    -0.306 NA
ATOM      9  C   UNL     1      28.308   8.878  48.147  1.00  0.00     0.105 C 
ATOM     10  C   UNL     1      26.950   8.841  50.164  1.00  0.00     0.105 C 
ENDBRANCH   7   8
ENDBRANCH   6   7
ENDBRANCH   1   5
BRANCH   3  11
ATOM     11  C   UNL     1      23.639   2.014  50.894  1.00  0.00     0.085 A 
ATOM     12  C   UNL     1      23.959   1.348  52.076  1.00  0.00     0.044 A 
ATOM     13  C   UNL     1      22.385   1.796  50.302  1.00  0.00     0.145 A 
ATOM     14  C   UNL     1      23.031   0.474  52.697  1.00  0.00     0.045 A 
ATOM     15  C   UNL     1      21.487   0.911  50.903  1.00  0.00     0.077 A 
ATOM     16  C   UNL     1      23.251  -0.220  53.906  1.00  0.00     0.141 A 
ATOM     17  C   UNL     1      21.788   0.253  52.090  1.00  0.00     0.080 A 
ATOM     18  N   UNL     1      22.331  -1.057  54.418  1.00  0.00    -0.219 NA
ATOM     19  N   UNL     1      20.870  -0.569  52.601  1.00  0.00    -0.236 NA
ATOM     20  C   UNL     1      21.189  -1.191  53.740  1.00  0.00     0.224 A 
BRANCH  13  21
ATOM     21  O   UNL     1      22.155   2.496  49.141  1.00  0.00    -0.486 OA
BRANCH  21  22
ATOM     22  C   UNL     1      20.921   3.213  49.000  1.00  0.00     0.201 C 
ATOM     23  C   UNL     1      21.137   4.599  49.574  1.00  0.00     0.076 C 
ATOM     24  C   UNL     1      20.628   3.532  47.538  1.00  0.00     0.205 C 
ATOM     25  C   UNL     1      21.830   5.313  48.435  1.00  0.00     0.164 C 
ATOM     26  O   UNL     1      21.286   4.776  47.224  1.00  0.00    -0.377 OA
ENDBRANCH  21  22
ENDBRANCH  13  21
BRANCH  16  27
ATOM     27  N   UNL     1      24.481  -0.029  54.594  1.00  0.00    -0.340 N 
ATOM     28  H   UNL     1      24.371  -0.312  55.563  1.00  0.00     0.168 HD
BRANCH  27  29
ATOM     29  C   UNL     1      25.800  -0.238  54.134  1.00  0.00     0.041 A 
ATOM     30  C   UNL     1      26.060  -1.350  53.314  1.00  0.00     0.029 A 
ATOM     31  C   UNL     1      26.886   0.544  54.550  1.00  0.00     0.049 A 
ATOM     32  C   UNL     1      27.355  -1.634  52.870  1.00  0.00     0.043 A 
ATOM     33  C   UNL     1      28.182   0.262  54.107  1.00  0.00     0.078 A 
ATOM     34  C   UNL     1      28.409  -0.821  53.266  1.00  0.00     0.141 A 
ATOM     35  Cl  UNL     1      29.490   1.260  54.621  1.00  0.00    -0.081 Cl
ATOM     36  F   UNL     1      29.644  -1.111  52.833  1.00  0.00    -0.205 F 
ENDBRANCH  27  29
ENDBRANCH  16  27
ENDBRANCH   3  11
TORSDOF 8
ENDMDL
MODEL 9
REMARK VINA RESULT:    -7.643      3.061      7.197
REMARK INTER + INTRA:         -12.929
REMARK INTER:                 -11.450
REMARK INTRA:                  -1.479
REMARK UNBOUND:                -1.712
REMARK SMILES CN(C)C/C=C/C(=O)Nc1cc2c(Nc3ccc(F)c(Cl)c3)ncnc2cc1O[C@H]1CCOC1
REMARK SMILES IDX 7 1 8 2 9 3 6 5 5 6 4 7 2 8 1 9 3 10 10 11 11 12 28 13 12 14
REMARK SMILES IDX 27 15 13 16 26 17 23 18 25 19 24 20 29 21 30 22 31 23 34 24
REMARK SMILES IDX 32 25 33 26 14 27 15 29 16 30 22 31 17 32 20 33 18 34 21 35
REMARK SMILES IDX 19 36
REMARK H PARENT 9 4 14 28
ROOT
ATOM      1  C   UNL     1      23.901   3.604  52.132  1.00  0.00     0.248 C 
ATOM      2  O   UNL     1      23.740   4.644  52.761  1.00  0.00    -0.270 OA
ATOM      3  N   UNL     1      24.162   3.477  50.790  1.00  0.00    -0.319 N 
ATOM      4  H   UNL     1      24.411   2.559  50.437  1.00  0.00     0.170 HD
ENDROOT
BRANCH   1   5
ATOM      5  C   UNL     1      23.904   2.313  52.873  1.00  0.00     0.068 C 
ATOM      6  C   UNL     1      24.688   1.271  52.555  1.00  0.00    -0.006 C 
BRANCH   6   7
ATOM      7  C   UNL     1      24.770  -0.095  53.190  1.00  0.00     0.111 C 
BRANCH   7   8
ATOM      8  N   UNL     1      26.013  -0.610  53.744  1.00  0.00    -0.306 NA
ATOM      9  C   UNL     1      26.686   0.285  54.674  1.00  0.00     0.105 C 
ATOM     10  C   UNL     1      26.911  -1.228  52.783  1.00  0.00     0.105 C 
ENDBRANCH   7   8
ENDBRANCH   6   7
ENDBRANCH   1   5
BRANCH   3  11
ATOM     11  C   UNL     1      24.200   4.494  49.811  1.00  0.00     0.085 A 
ATOM     12  C   UNL     1      25.302   5.322  49.605  1.00  0.00     0.044 A 
ATOM     13  C   UNL     1      23.053   4.669  49.022  1.00  0.00     0.145 A 
ATOM     14  C   UNL     1      25.287   6.322  48.599  1.00  0.00     0.045 A 
ATOM     15  C   UNL     1      23.033   5.675  48.053  1.00  0.00     0.077 A 
ATOM     16  C   UNL     1      26.361   7.187  48.297  1.00  0.00     0.141 A 
ATOM     17  C   UNL     1      24.131   6.499  47.828  1.00  0.00     0.080 A 
ATOM     18  N   UNL     1      26.259   8.132  47.346  1.00  0.00    -0.219 NA
ATOM     19  N   UNL     1      24.032   7.429  46.877  1.00  0.00    -0.236 NA
ATOM     20  C   UNL     1      25.101   8.208  46.686  1.00  0.00     0.224 A 
BRANCH  13  21
ATOM     21  O   UNL     1      22.017   3.806  49.293  1.00  0.00    -0.486 OA
BRANCH  21  22
ATOM     22  C   UNL     1      21.468   3.028  48.220  1.00  0.00     0.201 C 
ATOM     23  C   UNL     1      22.088   1.647  48.303  1.00  0.00     0.076 C 
ATOM     24  C   UNL     1      19.995   2.715  48.458  1.00  0.00     0.205 C 
ATOM     25  C   UNL     1      21.254   0.987  49.378  1.00  0.00     0.164 C 
ATOM     26  O   UNL     1      19.929   1.512  49.249  1.00  0.00    -0.377 OA
ENDBRANCH  21  22
ENDBRANCH  13  21
BRANCH  16  27
ATOM     27  N   UNL     1      27.576   7.054  49.023  1.00  0.00    -0.340 N 
ATOM     28  H   UNL     1      27.400   6.542  49.882  1.00  0.00     0.168 HD
BRANCH  27  29
ATOM     29  C   UNL     1      28.883   6.827  48.537  1.00  0.00     0.041 A 
ATOM     30  C   UNL     1      29.249   5.519  48.172  1.00  0.00     0.029 A 
ATOM     31  C   UNL     1      29.871   7.821  48.510  1.00  0.00     0.049 A 
ATOM     32  C   UNL     1      30.544   5.227  47.733  1.00  0.00     0.043 A 
ATOM     33  C   UNL     1      31.166   7.532  48.070  1.00  0.00     0.078 A 
ATOM     34  C   UNL     1      31.494   6.239  47.679  1.00  0.00     0.141 A 
ATOM     35  Cl  UNL     1      32.348   8.785  48.029  1.00  0.00    -0.081 Cl
ATOM     36  F   UNL     1      32.731   5.939  47.257  1.00  0.00    -0.205 F 
ENDBRANCH  27  29
ENDBRANCH  16  27
ENDBRANCH   3  11
TORSDOF 8
ENDMDL
