MODEL 1
REMARK VINA RESULT:    -7.014      0.000      0.000
REMARK INTER + INTRA:         -12.599
REMARK INTER:                 -11.114
REMARK INTRA:                  -1.484
REMARK UNBOUND:                -1.484
REMARK SMILES C#Cc1cccc(Nc2ncnc3cc(OCCOC)c(OCCOC)cc23)c1
REMARK SMILES IDX 9 1 10 2 11 3 12 4 13 5 14 6 15 7 21 8 27 9 28 10 8 11 7 13
REMARK SMILES IDX 2 14 3 15 4 16 29 17 5 18 6 19 1 20 22 21 23 22 24 23 25 24
REMARK SMILES IDX 26 25 16 26 17 27 18 28 19 29 20 30
REMARK H PARENT 8 12
ROOT
ATOM      1  C   UNL     1      25.328   2.787  51.848  1.00  0.00     0.141 A 
ATOM      2  N   UNL     1      25.932   3.602  50.966  1.00  0.00    -0.219 NA
ATOM      3  C   UNL     1      25.342   3.751  49.779  1.00  0.00     0.224 A 
ATOM      4  N   UNL     1      24.208   3.163  49.383  1.00  0.00    -0.236 NA
ATOM      5  C   UNL     1      23.604   2.365  50.268  1.00  0.00     0.080 A 
ATOM      6  C   UNL     1      22.419   1.746  49.892  1.00  0.00     0.079 A 
ATOM      7  C   UNL     1      21.716   0.902  50.759  1.00  0.00     0.163 A 
ATOM      8  C   UNL     1      22.208   0.678  52.054  1.00  0.00     0.162 A 
ATOM      9  C   UNL     1      23.402   1.290  52.440  1.00  0.00     0.064 A 
ATOM     10  C   UNL     1      24.116   2.132  51.549  1.00  0.00     0.047 A 
ENDROOT
BRANCH   1  11
ATOM     11  N   UNL     1      25.938   2.555  53.112  1.00  0.00    -0.340 N 
ATOM     12  H   UNL     1      25.210   2.354  53.790  1.00  0.00     0.168 HD
BRANCH  11  13
ATOM     13  C   UNL     1      27.116   1.825  53.396  1.00  0.00     0.041 A 
ATOM     14  C   UNL     1      28.511  -1.640  53.188  1.00  0.00    -0.070 C 
ATOM     15  C   UNL     1      28.430  -0.228  53.403  1.00  0.00     0.026 A 
ATOM     16  C   UNL     1      29.555   0.478  53.828  1.00  0.00     0.017 A 
ATOM     17  C   UNL     1      27.224   0.446  53.177  1.00  0.00     0.043 A 
ATOM     18  C   UNL     1      29.477   1.857  54.014  1.00  0.00     0.003 A 
ATOM     19  C   UNL     1      28.271   2.524  53.787  1.00  0.00     0.026 A 
ATOM     20  C   UNL     1      28.580  -2.826  53.008  1.00  0.00     0.010 C 
ENDBRANCH  11  13
ENDBRANCH   1  11
BRANCH   8  21
ATOM     21  O   UNL     1      21.464  -0.153  52.849  1.00  0.00    -0.487 OA
BRANCH  21  22
ATOM     22  C   UNL     1      22.139  -1.213  53.523  1.00  0.00     0.258 C 
BRANCH  22  23
ATOM     23  C   UNL     1      21.992  -1.000  55.030  1.00  0.00     0.201 C 
BRANCH  23  24
ATOM     24  O   UNL     1      23.186  -1.341  55.734  1.00  0.00    -0.381 OA
ATOM     25  C   UNL     1      24.363  -1.106  54.971  1.00  0.00     0.195 C 
ENDBRANCH  23  24
ENDBRANCH  22  23
ENDBRANCH  21  22
ENDBRANCH   8  21
BRANCH   7  26
ATOM     26  O   UNL     1      20.543   0.263  50.444  1.00  0.00    -0.487 OA
BRANCH  26  27
ATOM     27  C   UNL     1      19.414   1.066  50.106  1.00  0.00     0.258 C 
BRANCH  27  28
ATOM     28  C   UNL     1      18.437   1.043  51.282  1.00  0.00     0.201 C 
BRANCH  28  29
ATOM     29  O   UNL     1      18.015   2.355  51.657  1.00  0.00    -0.381 OA
ATOM     30  C   UNL     1      19.078   3.300  51.663  1.00  0.00     0.195 C 
ENDBRANCH  28  29
ENDBRANCH  27  28
ENDBRANCH  26  27
ENDBRANCH   7  26
TORSDOF 10
ENDMDL
MODEL 2
REMARK VINA RESULT:    -6.868      2.851      5.718
REMARK INTER + INTRA:         -12.368
REMARK INTER:                 -10.992
REMARK INTRA:                  -1.376
REMARK UNBOUND:                -1.484
REMARK SMILES C#Cc1cccc(Nc2ncnc3cc(OCCOC)c(OCCOC)cc23)c1
REMARK SMILES IDX 9 1 10 2 11 3 12 4 13 5 14 6 15 7 21 8 27 9 28 10 8 11 7 13
REMARK SMILES IDX 2 14 3 15 4 16 29 17 5 18 6 19 1 20 22 21 23 22 24 23 25 24
REMARK SMILES IDX 26 25 16 26 17 27 18 28 19 29 20 30
REMARK H PARENT 8 12
ROOT
ATOM      1  C   UNL     1      23.672   4.488  50.299  1.00  0.00     0.141 A 
ATOM      2  N   UNL     1      22.705   4.649  49.379  1.00  0.00    -0.219 NA
ATOM      3  C   UNL     1      21.828   3.652  49.243  1.00  0.00     0.224 A 
ATOM      4  N   UNL     1      21.824   2.507  49.934  1.00  0.00    -0.236 NA
ATOM      5  C   UNL     1      22.779   2.357  50.856  1.00  0.00     0.080 A 
ATOM      6  C   UNL     1      22.798   1.183  51.598  1.00  0.00     0.079 A 
ATOM      7  C   UNL     1      23.756   0.948  52.590  1.00  0.00     0.163 A 
ATOM      8  C   UNL     1      24.723   1.927  52.860  1.00  0.00     0.162 A 
ATOM      9  C   UNL     1      24.719   3.108  52.117  1.00  0.00     0.064 A 
ATOM     10  C   UNL     1      23.753   3.332  51.102  1.00  0.00     0.047 A 
ENDROOT
BRANCH   1  11
ATOM     11  N   UNL     1      24.661   5.499  50.453  1.00  0.00    -0.340 N 
ATOM     12  H   UNL     1      24.874   5.595  51.441  1.00  0.00     0.168 HD
BRANCH  11  13
ATOM     13  C   UNL     1      25.807   5.732  49.658  1.00  0.00     0.041 A 
ATOM     14  C   UNL     1      27.837   8.533  48.232  1.00  0.00    -0.070 C 
ATOM     15  C   UNL     1      27.422   7.211  48.586  1.00  0.00     0.026 A 
ATOM     16  C   UNL     1      28.198   6.113  48.213  1.00  0.00     0.017 A 
ATOM     17  C   UNL     1      26.242   7.018  49.315  1.00  0.00     0.043 A 
ATOM     18  C   UNL     1      27.801   4.829  48.579  1.00  0.00     0.003 A 
ATOM     19  C   UNL     1      26.623   4.644  49.306  1.00  0.00     0.026 A 
ATOM     20  C   UNL     1      28.186   9.643  47.935  1.00  0.00     0.010 C 
ENDBRANCH  11  13
ENDBRANCH   1  11
BRANCH   8  21
ATOM     21  O   UNL     1      25.624   1.632  53.850  1.00  0.00    -0.487 OA
BRANCH  21  22
ATOM     22  C   UNL     1      27.011   1.790  53.559  1.00  0.00     0.258 C 
BRANCH  22  23
ATOM     23  C   UNL     1      27.652   0.403  53.487  1.00  0.00     0.201 C 
BRANCH  23  24
ATOM     24  O   UNL     1      27.208  -0.329  52.345  1.00  0.00    -0.381 OA
ATOM     25  C   UNL     1      26.912  -1.688  52.642  1.00  0.00     0.195 C 
ENDBRANCH  23  24
ENDBRANCH  22  23
ENDBRANCH  21  22
ENDBRANCH   8  21
BRANCH   7  26
ATOM     26  O   UNL     1      23.824  -0.190  53.353  1.00  0.00    -0.487 OA
BRANCH  26  27
ATOM     27  C   UNL     1      22.665  -1.019  53.425  1.00  0.00     0.258 C 
BRANCH  27  28
ATOM     28  C   UNL     1      22.113  -0.953  54.849  1.00  0.00     0.201 C 
BRANCH  28  29
ATOM     29  O   UNL     1      20.991  -0.076  54.950  1.00  0.00    -0.381 OA
ATOM     30  C   UNL     1      20.225  -0.011  53.754  1.00  0.00     0.195 C 
ENDBRANCH  28  29
ENDBRANCH  27  28
ENDBRANCH  26  27
ENDBRANCH   7  26
TORSDOF 10
ENDMDL
MODEL 3
REMARK VINA RESULT:    -6.818      2.356      5.876
REMARK INTER + INTRA:         -12.288
REMARK INTER:                 -10.627
REMARK INTRA:                  -1.662
REMARK UNBOUND:                -1.484
REMARK SMILES C#Cc1cccc(Nc2ncnc3cc(OCCOC)c(OCCOC)cc23)c1
REMARK SMILES IDX 9 1 10 2 11 3 12 4 13 5 14 6 15 7 21 8 27 9 28 10 8 11 7 13
REMARK SMILES IDX 2 14 3 15 4 16 29 17 5 18 6 19 1 20 22 21 23 22 24 23 25 24
REMARK SMILES IDX 26 25 16 26 17 27 18 28 19 29 20 30
REMARK H PARENT 8 12
ROOT
ATOM      1  C   UNL     1      26.251   2.488  51.113  1.00  0.00     0.141 A 
ATOM      2  N   UNL     1      27.267   2.397  51.989  1.00  0.00    -0.219 NA
ATOM      3  C   UNL     1      26.971   1.957  53.214  1.00  0.00     0.224 A 
ATOM      4  N   UNL     1      25.759   1.603  53.652  1.00  0.00    -0.236 NA
ATOM      5  C   UNL     1      24.755   1.682  52.774  1.00  0.00     0.080 A 
ATOM      6  C   UNL     1      23.484   1.312  53.195  1.00  0.00     0.079 A 
ATOM      7  C   UNL     1      22.378   1.355  52.339  1.00  0.00     0.163 A 
ATOM      8  C   UNL     1      22.550   1.771  51.010  1.00  0.00     0.162 A 
ATOM      9  C   UNL     1      23.821   2.151  50.578  1.00  0.00     0.064 A 
ATOM     10  C   UNL     1      24.934   2.119  51.457  1.00  0.00     0.047 A 
ENDROOT
BRANCH   1  11
ATOM     11  N   UNL     1      26.501   2.994  49.808  1.00  0.00    -0.340 N 
ATOM     12  H   UNL     1      26.009   2.413  49.136  1.00  0.00     0.168 HD
BRANCH  11  13
ATOM     13  C   UNL     1      26.542   4.343  49.384  1.00  0.00     0.041 A 
ATOM     14  C   UNL     1      24.662   7.559  49.736  1.00  0.00    -0.070 C 
ATOM     15  C   UNL     1      25.679   6.623  49.367  1.00  0.00     0.026 A 
ATOM     16  C   UNL     1      26.789   7.051  48.637  1.00  0.00     0.017 A 
ATOM     17  C   UNL     1      25.567   5.280  49.747  1.00  0.00     0.043 A 
ATOM     18  C   UNL     1      27.787   6.140  48.300  1.00  0.00     0.003 A 
ATOM     19  C   UNL     1      27.669   4.802  48.682  1.00  0.00     0.026 A 
ATOM     20  C   UNL     1      23.809   8.346  50.046  1.00  0.00     0.010 C 
ENDBRANCH  11  13
ENDBRANCH   1  11
BRANCH   8  21
ATOM     21  O   UNL     1      21.425   1.780  50.228  1.00  0.00    -0.487 OA
BRANCH  21  22
ATOM     22  C   UNL     1      21.209   2.908  49.383  1.00  0.00     0.258 C 
BRANCH  22  23
ATOM     23  C   UNL     1      20.672   4.057  50.237  1.00  0.00     0.201 C 
BRANCH  23  24
ATOM     24  O   UNL     1      21.593   5.146  50.303  1.00  0.00    -0.381 OA
ATOM     25  C   UNL     1      22.094   5.366  51.615  1.00  0.00     0.195 C 
ENDBRANCH  23  24
ENDBRANCH  22  23
ENDBRANCH  21  22
ENDBRANCH   8  21
BRANCH   7  26
ATOM     26  O   UNL     1      21.101   1.003  52.698  1.00  0.00    -0.487 OA
BRANCH  26  27
ATOM     27  C   UNL     1      20.894   0.477  54.007  1.00  0.00     0.258 C 
BRANCH  27  28
ATOM     28  C   UNL     1      20.510  -0.997  53.880  1.00  0.00     0.201 C 
BRANCH  28  29
ATOM     29  O   UNL     1      21.637  -1.861  54.023  1.00  0.00    -0.381 OA
ATOM     30  C   UNL     1      22.478  -1.502  55.113  1.00  0.00     0.195 C 
ENDBRANCH  28  29
ENDBRANCH  27  28
ENDBRANCH  26  27
ENDBRANCH   7  26
TORSDOF 10
ENDMDL
MODEL 4
REMARK VINA RESULT:    -6.809      3.437      8.250
REMARK INTER + INTRA:         -12.274
REMARK INTER:                 -11.541
REMARK INTRA:                  -0.733
REMARK UNBOUND:                -1.484
REMARK SMILES C#Cc1cccc(Nc2ncnc3cc(OCCOC)c(OCCOC)cc23)c1
REMARK SMILES IDX 9 1 10 2 11 3 12 4 13 5 14 6 15 7 21 8 27 9 28 10 8 11 7 13
REMARK SMILES IDX 2 14 3 15 4 16 29 17 5 18 6 19 1 20 22 21 23 22 24 23 25 24
REMARK SMILES IDX 26 25 16 26 17 27 18 28 19 29 20 30
REMARK H PARENT 8 12
ROOT
ATOM      1  C   UNL     1      21.882  -0.079  53.979  1.00  0.00     0.141 A 
ATOM      2  N   UNL     1      21.708  -1.001  54.942  1.00  0.00    -0.219 NA
ATOM      3  C   UNL     1      22.809  -1.563  55.446  1.00  0.00     0.224 A 
ATOM      4  N   UNL     1      24.067  -1.297  55.081  1.00  0.00    -0.236 NA
ATOM      5  C   UNL     1      24.236  -0.369  54.135  1.00  0.00     0.080 A 
ATOM      6  C   UNL     1      25.531  -0.062  53.739  1.00  0.00     0.079 A 
ATOM      7  C   UNL     1      25.799   0.903  52.762  1.00  0.00     0.163 A 
ATOM      8  C   UNL     1      24.734   1.595  52.166  1.00  0.00     0.162 A 
ATOM      9  C   UNL     1      23.427   1.290  52.551  1.00  0.00     0.064 A 
ATOM     10  C   UNL     1      23.164   0.299  53.532  1.00  0.00     0.047 A 
ENDROOT
BRANCH   1  11
ATOM     11  N   UNL     1      20.742   0.518  53.373  1.00  0.00    -0.340 N 
ATOM     12  H   UNL     1      21.058   1.228  52.720  1.00  0.00     0.168 HD
BRANCH  11  13
ATOM     13  C   UNL     1      19.563  -0.113  52.912  1.00  0.00     0.041 A 
ATOM     14  C   UNL     1      17.437  -3.125  53.551  1.00  0.00    -0.070 C 
ATOM     15  C   UNL     1      17.886  -1.880  53.008  1.00  0.00     0.026 A 
ATOM     16  C   UNL     1      17.114  -1.216  52.054  1.00  0.00     0.017 A 
ATOM     17  C   UNL     1      19.095  -1.322  53.441  1.00  0.00     0.043 A 
ATOM     18  C   UNL     1      17.544   0.007  51.546  1.00  0.00     0.003 A 
ATOM     19  C   UNL     1      18.752   0.558  51.982  1.00  0.00     0.026 A 
ATOM     20  C   UNL     1      17.060  -4.170  54.006  1.00  0.00     0.010 C 
ENDBRANCH  11  13
ENDBRANCH   1  11
BRANCH   8  21
ATOM     21  O   UNL     1      25.072   2.531  51.224  1.00  0.00    -0.487 OA
BRANCH  21  22
ATOM     22  C   UNL     1      24.028   3.331  50.674  1.00  0.00     0.258 C 
BRANCH  22  23
ATOM     23  C   UNL     1      24.170   4.753  51.217  1.00  0.00     0.201 C 
BRANCH  23  24
ATOM     24  O   UNL     1      22.985   5.522  51.010  1.00  0.00    -0.381 OA
ATOM     25  C   UNL     1      21.865   5.012  51.722  1.00  0.00     0.195 C 
ENDBRANCH  23  24
ENDBRANCH  22  23
ENDBRANCH  21  22
ENDBRANCH   8  21
BRANCH   7  26
ATOM     26  O   UNL     1      27.055   1.248  52.332  1.00  0.00    -0.487 OA
BRANCH  26  27
ATOM     27  C   UNL     1      27.842   2.092  53.170  1.00  0.00     0.258 C 
BRANCH  27  28
ATOM     28  C   UNL     1      29.150   1.368  53.492  1.00  0.00     0.201 C 
BRANCH  28  29
ATOM     29  O   UNL     1      28.948   0.258  54.366  1.00  0.00    -0.381 OA
ATOM     30  C   UNL     1      29.489  -0.955  53.858  1.00  0.00     0.195 C 
ENDBRANCH  28  29
ENDBRANCH  27  28
ENDBRANCH  26  27
ENDBRANCH   7  26
TORSDOF 10
ENDMDL
MODEL 5
REMARK VINA RESULT:    -6.792      2.405      5.828
REMARK INTER + INTRA:         -12.248
REMARK INTER:                 -10.875
REMARK INTRA:                  -1.373
REMARK UNBOUND:                -1.484
REMARK SMILES C#Cc1cccc(Nc2ncnc3cc(OCCOC)c(OCCOC)cc23)c1
REMARK SMILES IDX 9 1 10 2 11 3 12 4 13 5 14 6 15 7 21 8 27 9 28 10 8 11 7 13
REMARK SMILES IDX 2 14 3 15 4 16 29 17 5 18 6 19 1 20 22 21 23 22 24 23 25 24
REMARK SMILES IDX 26 25 16 26 17 27 18 28 19 29 20 30
REMARK H PARENT 8 12
ROOT
ATOM      1  C   UNL     1      26.160   2.556  50.942  1.00  0.00     0.141 A 
ATOM      2  N   UNL     1      27.262   2.404  51.698  1.00  0.00    -0.219 NA
ATOM      3  C   UNL     1      27.081   1.975  52.949  1.00  0.00     0.224 A 
ATOM      4  N   UNL     1      25.909   1.686  53.521  1.00  0.00    -0.236 NA
ATOM      5  C   UNL     1      24.818   1.824  52.762  1.00  0.00     0.080 A 
ATOM      6  C   UNL     1      23.584   1.523  53.324  1.00  0.00     0.079 A 
ATOM      7  C   UNL     1      22.393   1.632  52.598  1.00  0.00     0.163 A 
ATOM      8  C   UNL     1      22.436   2.044  51.258  1.00  0.00     0.162 A 
ATOM      9  C   UNL     1      23.670   2.356  50.685  1.00  0.00     0.064 A 
ATOM     10  C   UNL     1      24.872   2.258  51.433  1.00  0.00     0.047 A 
ENDROOT
BRANCH   1  11
ATOM     11  N   UNL     1      26.289   3.054  49.616  1.00  0.00    -0.340 N 
ATOM     12  H   UNL     1      25.579   2.617  49.036  1.00  0.00     0.168 HD
BRANCH  11  13
ATOM     13  C   UNL     1      26.543   4.382  49.200  1.00  0.00     0.041 A 
ATOM     14  C   UNL     1      29.250   6.498  47.720  1.00  0.00    -0.070 C 
ATOM     15  C   UNL     1      27.972   6.098  48.222  1.00  0.00     0.026 A 
ATOM     16  C   UNL     1      26.913   7.006  48.236  1.00  0.00     0.017 A 
ATOM     17  C   UNL     1      27.781   4.792  48.690  1.00  0.00     0.043 A 
ATOM     18  C   UNL     1      25.664   6.605  48.705  1.00  0.00     0.003 A 
ATOM     19  C   UNL     1      25.480   5.300  49.171  1.00  0.00     0.026 A 
ATOM     20  C   UNL     1      30.323   6.835  47.298  1.00  0.00     0.010 C 
ENDBRANCH  11  13
ENDBRANCH   1  11
BRANCH   8  21
ATOM     21  O   UNL     1      21.233   2.120  50.608  1.00  0.00    -0.487 OA
BRANCH  21  22
ATOM     22  C   UNL     1      20.926   3.325  49.910  1.00  0.00     0.258 C 
BRANCH  22  23
ATOM     23  C   UNL     1      20.449   4.364  50.924  1.00  0.00     0.201 C 
BRANCH  23  24
ATOM     24  O   UNL     1      19.416   3.851  51.765  1.00  0.00    -0.381 OA
ATOM     25  C   UNL     1      18.129   3.921  51.164  1.00  0.00     0.195 C 
ENDBRANCH  23  24
ENDBRANCH  22  23
ENDBRANCH  21  22
ENDBRANCH   8  21
BRANCH   7  26
ATOM     26  O   UNL     1      21.147   1.349  53.099  1.00  0.00    -0.487 OA
BRANCH  26  27
ATOM     27  C   UNL     1      21.059   0.473  54.221  1.00  0.00     0.258 C 
BRANCH  27  28
ATOM     28  C   UNL     1      20.695  -0.923  53.716  1.00  0.00     0.201 C 
BRANCH  28  29
ATOM     29  O   UNL     1      21.580  -1.925  54.217  1.00  0.00    -0.381 OA
ATOM     30  C   UNL     1      22.517  -1.417  55.159  1.00  0.00     0.195 C 
ENDBRANCH  28  29
ENDBRANCH  27  28
ENDBRANCH  26  27
ENDBRANCH   7  26
TORSDOF 10
ENDMDL
MODEL 6
REMARK VINA RESULT:    -6.783      2.373      4.262
REMARK INTER + INTRA:         -12.233
REMARK INTER:                 -11.178
REMARK INTRA:                  -1.055
REMARK UNBOUND:                -1.484
REMARK SMILES C#Cc1cccc(Nc2ncnc3cc(OCCOC)c(OCCOC)cc23)c1
REMARK SMILES IDX 9 1 10 2 11 3 12 4 13 5 14 6 15 7 21 8 27 9 28 10 8 11 7 13
REMARK SMILES IDX 2 14 3 15 4 16 29 17 5 18 6 19 1 20 22 21 23 22 24 23 25 24
REMARK SMILES IDX 26 25 16 26 17 27 18 28 19 29 20 30
REMARK H PARENT 8 12
ROOT
ATOM      1  C   UNL     1      23.594  -0.225  53.506  1.00  0.00     0.141 A 
ATOM      2  N   UNL     1      23.959  -0.848  54.640  1.00  0.00    -0.219 NA
ATOM      3  C   UNL     1      22.984  -1.397  55.368  1.00  0.00     0.224 A 
ATOM      4  N   UNL     1      21.680  -1.383  55.077  1.00  0.00    -0.236 NA
ATOM      5  C   UNL     1      21.323  -0.776  53.942  1.00  0.00     0.080 A 
ATOM      6  C   UNL     1      19.976  -0.751  53.605  1.00  0.00     0.079 A 
ATOM      7  C   UNL     1      19.516  -0.145  52.431  1.00  0.00     0.163 A 
ATOM      8  C   UNL     1      20.437   0.448  51.554  1.00  0.00     0.162 A 
ATOM      9  C   UNL     1      21.793   0.435  51.885  1.00  0.00     0.064 A 
ATOM     10  C   UNL     1      22.249  -0.168  53.086  1.00  0.00     0.047 A 
ENDROOT
BRANCH   1  11
ATOM     11  N   UNL     1      24.586   0.418  52.715  1.00  0.00    -0.340 N 
ATOM     12  H   UNL     1      24.166   1.224  52.262  1.00  0.00     0.168 HD
BRANCH  11  13
ATOM     13  C   UNL     1      25.941   0.661  53.037  1.00  0.00     0.041 A 
ATOM     14  C   UNL     1      29.207  -1.127  53.414  1.00  0.00    -0.070 C 
ATOM     15  C   UNL     1      28.247  -0.068  53.345  1.00  0.00     0.026 A 
ATOM     16  C   UNL     1      28.655   1.255  53.520  1.00  0.00     0.017 A 
ATOM     17  C   UNL     1      26.901  -0.357  53.093  1.00  0.00     0.043 A 
ATOM     18  C   UNL     1      27.721   2.285  53.429  1.00  0.00     0.003 A 
ATOM     19  C   UNL     1      26.379   1.988  53.177  1.00  0.00     0.026 A 
ATOM     20  C   UNL     1      30.013  -2.015  53.472  1.00  0.00     0.010 C 
ENDBRANCH  11  13
ENDBRANCH   1  11
BRANCH   8  21
ATOM     21  O   UNL     1      19.916   1.015  50.421  1.00  0.00    -0.487 OA
BRANCH  21  22
ATOM     22  C   UNL     1      20.397   2.301  50.036  1.00  0.00     0.258 C 
BRANCH  22  23
ATOM     23  C   UNL     1      19.381   3.352  50.486  1.00  0.00     0.201 C 
BRANCH  23  24
ATOM     24  O   UNL     1      19.737   3.932  51.741  1.00  0.00    -0.381 OA
ATOM     25  C   UNL     1      21.136   4.146  51.874  1.00  0.00     0.195 C 
ENDBRANCH  23  24
ENDBRANCH  22  23
ENDBRANCH  21  22
ENDBRANCH   8  21
BRANCH   7  26
ATOM     26  O   UNL     1      18.200  -0.090  52.046  1.00  0.00    -0.487 OA
BRANCH  26  27
ATOM     27  C   UNL     1      17.279  -0.975  52.681  1.00  0.00     0.258 C 
BRANCH  27  28
ATOM     28  C   UNL     1      15.862  -0.474  52.406  1.00  0.00     0.201 C 
BRANCH  28  29
ATOM     29  O   UNL     1      15.855   0.834  51.834  1.00  0.00    -0.381 OA
ATOM     30  C   UNL     1      15.014   1.743  52.533  1.00  0.00     0.195 C 
ENDBRANCH  28  29
ENDBRANCH  27  28
ENDBRANCH  26  27
ENDBRANCH   7  26
TORSDOF 10
ENDMDL
MODEL 7
REMARK VINA RESULT:    -6.778      6.061      8.729
REMARK INTER + INTRA:         -12.225
REMARK INTER:                 -11.061
REMARK INTRA:                  -1.163
REMARK UNBOUND:                -1.484
REMARK SMILES C#Cc1cccc(Nc2ncnc3cc(OCCOC)c(OCCOC)cc23)c1
REMARK SMILES IDX 9 1 10 2 11 3 12 4 13 5 14 6 15 7 21 8 27 9 28 10 8 11 7 13
REMARK SMILES IDX 2 14 3 15 4 16 29 17 5 18 6 19 1 20 22 21 23 22 24 23 25 24
REMARK SMILES IDX 26 25 16 26 17 27 18 28 19 29 20 30
REMARK H PARENT 8 12
ROOT
ATOM      1  C   UNL     1      24.704   4.865  50.335  1.00  0.00     0.141 A 
ATOM      2  N   UNL     1      23.645   5.241  51.071  1.00  0.00    -0.219 NA
ATOM      3  C   UNL     1      23.515   6.546  51.320  1.00  0.00     0.224 A 
ATOM      4  N   UNL     1      24.341   7.513  50.908  1.00  0.00    -0.236 NA
ATOM      5  C   UNL     1      25.385   7.136  50.165  1.00  0.00     0.080 A 
ATOM      6  C   UNL     1      26.258   8.117  49.713  1.00  0.00     0.079 A 
ATOM      7  C   UNL     1      27.371   7.811  48.921  1.00  0.00     0.163 A 
ATOM      8  C   UNL     1      27.614   6.478  48.557  1.00  0.00     0.162 A 
ATOM      9  C   UNL     1      26.747   5.483  49.011  1.00  0.00     0.064 A 
ATOM     10  C   UNL     1      25.629   5.800  49.826  1.00  0.00     0.047 A 
ENDROOT
BRANCH   1  11
ATOM     11  N   UNL     1      24.918   3.482  50.078  1.00  0.00    -0.340 N 
ATOM     12  H   UNL     1      25.495   3.393  49.248  1.00  0.00     0.168 HD
BRANCH  11  13
ATOM     13  C   UNL     1      25.194   2.452  51.006  1.00  0.00     0.041 A 
ATOM     14  C   UNL     1      23.453  -0.018  53.213  1.00  0.00    -0.070 C 
ATOM     15  C   UNL     1      24.498   0.681  52.531  1.00  0.00     0.026 A 
ATOM     16  C   UNL     1      25.827   0.297  52.712  1.00  0.00     0.017 A 
ATOM     17  C   UNL     1      24.187   1.743  51.673  1.00  0.00     0.043 A 
ATOM     18  C   UNL     1      26.839   0.966  52.028  1.00  0.00     0.003 A 
ATOM     19  C   UNL     1      26.522   2.025  51.173  1.00  0.00     0.026 A 
ATOM     20  C   UNL     1      22.576  -0.605  53.787  1.00  0.00     0.010 C 
ENDBRANCH  11  13
ENDBRANCH   1  11
BRANCH   8  21
ATOM     21  O   UNL     1      28.716   6.255  47.775  1.00  0.00    -0.487 OA
BRANCH  21  22
ATOM     22  C   UNL     1      29.666   5.288  48.220  1.00  0.00     0.258 C 
BRANCH  22  23
ATOM     23  C   UNL     1      30.938   6.020  48.647  1.00  0.00     0.201 C 
BRANCH  23  24
ATOM     24  O   UNL     1      32.098   5.200  48.499  1.00  0.00    -0.381 OA
ATOM     25  C   UNL     1      31.987   4.275  47.425  1.00  0.00     0.195 C 
ENDBRANCH  23  24
ENDBRANCH  22  23
ENDBRANCH  21  22
ENDBRANCH   8  21
BRANCH   7  26
ATOM     26  O   UNL     1      28.267   8.736  48.446  1.00  0.00    -0.487 OA
BRANCH  26  27
ATOM     27  C   UNL     1      28.779   9.703  49.361  1.00  0.00     0.258 C 
BRANCH  27  28
ATOM     28  C   UNL     1      30.305   9.603  49.363  1.00  0.00     0.201 C 
BRANCH  28  29
ATOM     29  O   UNL     1      30.916  10.686  48.663  1.00  0.00    -0.381 OA
ATOM     30  C   UNL     1      30.264  11.930  48.885  1.00  0.00     0.195 C 
ENDBRANCH  28  29
ENDBRANCH  27  28
ENDBRANCH  26  27
ENDBRANCH   7  26
TORSDOF 10
ENDMDL
MODEL 8
REMARK VINA RESULT:    -6.581      2.066      7.122
REMARK INTER + INTRA:         -11.913
REMARK INTER:                 -10.523
REMARK INTRA:                  -1.390
REMARK UNBOUND:                -1.484
REMARK SMILES C#Cc1cccc(Nc2ncnc3cc(OCCOC)c(OCCOC)cc23)c1
REMARK SMILES IDX 9 1 10 2 11 3 12 4 13 5 14 6 15 7 21 8 27 9 28 10 8 11 7 13
REMARK SMILES IDX 2 14 3 15 4 16 29 17 5 18 6 19 1 20 22 21 23 22 24 23 25 24
REMARK SMILES IDX 26 25 16 26 17 27 18 28 19 29 20 30
REMARK H PARENT 8 12
ROOT
ATOM      1  C   UNL     1      23.931   3.666  50.937  1.00  0.00     0.141 A 
ATOM      2  N   UNL     1      24.587   4.445  50.058  1.00  0.00    -0.219 NA
ATOM      3  C   UNL     1      25.845   4.103  49.770  1.00  0.00     0.224 A 
ATOM      4  N   UNL     1      26.513   3.061  50.275  1.00  0.00    -0.236 NA
ATOM      5  C   UNL     1      25.853   2.282  51.136  1.00  0.00     0.080 A 
ATOM      6  C   UNL     1      26.516   1.186  51.672  1.00  0.00     0.079 A 
ATOM      7  C   UNL     1      25.897   0.313  52.573  1.00  0.00     0.163 A 
ATOM      8  C   UNL     1      24.562   0.536  52.943  1.00  0.00     0.162 A 
ATOM      9  C   UNL     1      23.887   1.638  52.416  1.00  0.00     0.064 A 
ATOM     10  C   UNL     1      24.528   2.527  51.515  1.00  0.00     0.047 A 
ENDROOT
BRANCH   1  11
ATOM     11  N   UNL     1      22.604   4.010  51.316  1.00  0.00    -0.340 N 
ATOM     12  H   UNL     1      22.541   5.021  51.389  1.00  0.00     0.168 HD
BRANCH  11  13
ATOM     13  C   UNL     1      21.389   3.454  50.853  1.00  0.00     0.041 A 
ATOM     14  C   UNL     1      17.692   3.700  51.377  1.00  0.00    -0.070 C 
ATOM     15  C   UNL     1      18.955   3.311  50.829  1.00  0.00     0.026 A 
ATOM     16  C   UNL     1      19.005   2.420  49.757  1.00  0.00     0.017 A 
ATOM     17  C   UNL     1      20.140   3.832  51.363  1.00  0.00     0.043 A 
ATOM     18  C   UNL     1      20.236   2.062  49.212  1.00  0.00     0.003 A 
ATOM     19  C   UNL     1      21.415   2.586  49.749  1.00  0.00     0.026 A 
ATOM     20  C   UNL     1      16.631   4.026  51.837  1.00  0.00     0.010 C 
ENDBRANCH  11  13
ENDBRANCH   1  11
BRANCH   8  21
ATOM     21  O   UNL     1      24.019  -0.364  53.823  1.00  0.00    -0.487 OA
BRANCH  21  22
ATOM     22  C   UNL     1      22.712  -0.863  53.546  1.00  0.00     0.258 C 
BRANCH  22  23
ATOM     23  C   UNL     1      21.797  -0.499  54.716  1.00  0.00     0.201 C 
BRANCH  23  24
ATOM     24  O   UNL     1      20.531  -0.014  54.269  1.00  0.00    -0.381 OA
ATOM     25  C   UNL     1      20.524   0.320  52.887  1.00  0.00     0.195 C 
ENDBRANCH  23  24
ENDBRANCH  22  23
ENDBRANCH  21  22
ENDBRANCH   8  21
BRANCH   7  26
ATOM     26  O   UNL     1      26.500  -0.784  53.135  1.00  0.00    -0.487 OA
BRANCH  26  27
ATOM     27  C   UNL     1      27.926  -0.825  53.160  1.00  0.00     0.258 C 
BRANCH  27  28
ATOM     28  C   UNL     1      28.406  -0.124  54.431  1.00  0.00     0.201 C 
BRANCH  28  29
ATOM     29  O   UNL     1      29.488   0.772  54.175  1.00  0.00    -0.381 OA
ATOM     30  C   UNL     1      29.073   2.127  54.060  1.00  0.00     0.195 C 
ENDBRANCH  28  29
ENDBRANCH  27  28
ENDBRANCH  26  27
ENDBRANCH   7  26
TORSDOF 10
ENDMDL
MODEL 9
REMARK VINA RESULT:    -6.483      3.138      8.332
REMARK INTER + INTRA:         -11.757
REMARK INTER:                 -10.709
REMARK INTRA:                  -1.048
REMARK UNBOUND:                -1.484
REMARK SMILES C#Cc1cccc(Nc2ncnc3cc(OCCOC)c(OCCOC)cc23)c1
REMARK SMILES IDX 9 1 10 2 11 3 12 4 13 5 14 6 15 7 21 8 27 9 28 10 8 11 7 13
REMARK SMILES IDX 2 14 3 15 4 16 29 17 5 18 6 19 1 20 22 21 23 22 24 23 25 24
REMARK SMILES IDX 26 25 16 26 17 27 18 28 19 29 20 30
REMARK H PARENT 8 12
ROOT
ATOM      1  C   UNL     1      21.191   0.783  53.501  1.00  0.00     0.141 A 
ATOM      2  N   UNL     1      20.632  -0.141  54.302  1.00  0.00    -0.219 NA
ATOM      3  C   UNL     1      21.421  -1.134  54.721  1.00  0.00     0.224 A 
ATOM      4  N   UNL     1      22.712  -1.296  54.416  1.00  0.00    -0.236 NA
ATOM      5  C   UNL     1      23.267  -0.367  53.631  1.00  0.00     0.080 A 
ATOM      6  C   UNL     1      24.609  -0.501  53.302  1.00  0.00     0.079 A 
ATOM      7  C   UNL     1      25.271   0.429  52.494  1.00  0.00     0.163 A 
ATOM      8  C   UNL     1      24.569   1.542  52.006  1.00  0.00     0.162 A 
ATOM      9  C   UNL     1      23.218   1.684  52.324  1.00  0.00     0.064 A 
ATOM     10  C   UNL     1      22.550   0.726  53.132  1.00  0.00     0.047 A 
ENDROOT
BRANCH   1  11
ATOM     11  N   UNL     1      20.385   1.837  52.987  1.00  0.00    -0.340 N 
ATOM     12  H   UNL     1      20.849   2.719  53.177  1.00  0.00     0.168 HD
BRANCH  11  13
ATOM     13  C   UNL     1      19.679   1.882  51.763  1.00  0.00     0.041 A 
ATOM     14  C   UNL     1      17.066   0.016  49.841  1.00  0.00    -0.070 C 
ATOM     15  C   UNL     1      18.008   1.029  50.205  1.00  0.00     0.026 A 
ATOM     16  C   UNL     1      18.191   2.140  49.381  1.00  0.00     0.017 A 
ATOM     17  C   UNL     1      18.739   0.911  51.393  1.00  0.00     0.043 A 
ATOM     18  C   UNL     1      19.093   3.135  49.751  1.00  0.00     0.003 A 
ATOM     19  C   UNL     1      19.820   3.011  50.938  1.00  0.00     0.026 A 
ATOM     20  C   UNL     1      16.275  -0.834  49.535  1.00  0.00     0.010 C 
ENDBRANCH  11  13
ENDBRANCH   1  11
BRANCH   8  21
ATOM     21  O   UNL     1      25.283   2.415  51.228  1.00  0.00    -0.487 OA
BRANCH  21  22
ATOM     22  C   UNL     1      24.566   3.444  50.548  1.00  0.00     0.258 C 
BRANCH  22  23
ATOM     23  C   UNL     1      25.442   3.977  49.414  1.00  0.00     0.201 C 
BRANCH  23  24
ATOM     24  O   UNL     1      25.006   5.259  48.964  1.00  0.00    -0.381 OA
ATOM     25  C   UNL     1      25.609   6.330  49.679  1.00  0.00     0.195 C 
ENDBRANCH  23  24
ENDBRANCH  22  23
ENDBRANCH  21  22
ENDBRANCH   8  21
BRANCH   7  26
ATOM     26  O   UNL     1      26.593   0.349  52.136  1.00  0.00    -0.487 OA
BRANCH  26  27
ATOM     27  C   UNL     1      27.451  -0.475  52.923  1.00  0.00     0.258 C 
BRANCH  27  28
ATOM     28  C   UNL     1      27.956   0.348  54.108  1.00  0.00     0.201 C 
BRANCH  28  29
ATOM     29  O   UNL     1      29.179  -0.165  54.636  1.00  0.00    -0.381 OA
ATOM     30  C   UNL     1      29.868  -1.010  53.724  1.00  0.00     0.195 C 
ENDBRANCH  28  29
ENDBRANCH  27  28
ENDBRANCH  26  27
ENDBRANCH   7  26
TORSDOF 10
ENDMDL
