MODEL 1
REMARK VINA RESULT:    -7.438      0.000      0.000
REMARK INTER + INTRA:         -13.297
REMARK INTER:                 -11.787
REMARK INTRA:                  -1.510
REMARK UNBOUND:                -1.510
REMARK SMILES COC[C@@H](Cn1ccnc1[N+](=O)[O-])OC(=O)c1ccc(NC=C2C(=O)C=CC2=O)cc1
REMARK SMILES IDX 4 1 3 2 2 3 1 4 5 5 6 6 7 7 10 8 8 9 9 10 11 11 12 12 13 13
REMARK SMILES IDX 14 14 15 15 16 16 17 17 18 18 31 19 19 20 30 21 20 22 21 23
REMARK SMILES IDX 22 25 23 26 24 27 28 28 25 29 26 30 27 31 29 32
REMARK H PARENT 21 24
ROOT
ATOM      1  C   UNL     1      22.529   4.602  49.400  1.00  0.00     0.237 C 
ENDROOT
BRANCH   1   2
ATOM      2  C   UNL     1      21.486   4.519  48.273  1.00  0.00     0.208 C 
BRANCH   2   3
ATOM      3  O   UNL     1      22.054   4.795  46.987  1.00  0.00    -0.381 OA
ATOM      4  C   UNL     1      21.657   3.879  45.975  1.00  0.00     0.195 C 
ENDBRANCH   2   3
ENDBRANCH   1   2
BRANCH   1   5
ATOM      5  C   UNL     1      23.742   5.478  49.044  1.00  0.00     0.253 C 
BRANCH   5   6
ATOM      6  N   UNL     1      25.033   4.834  49.204  1.00  0.00    -0.226 N 
ATOM      7  C   UNL     1      25.190   3.493  49.485  1.00  0.00     0.204 A 
ATOM      8  C   UNL     1      26.296   5.353  49.089  1.00  0.00     0.434 A 
ATOM      9  C   UNL     1      26.549   3.272  49.478  1.00  0.00     0.245 A 
ATOM     10  N   UNL     1      27.230   4.430  49.221  1.00  0.00    -0.074 NA
BRANCH   8  11
ATOM     11  N   UNL     1      26.596   6.735  48.855  1.00  0.00    -0.047 N 
ATOM     12  O   UNL     1      26.488   7.505  49.818  1.00  0.00    -0.390 OA
ATOM     13  O   UNL     1      26.931   7.055  47.706  1.00  0.00    -0.390 OA
ENDBRANCH   8  11
ENDBRANCH   5   6
ENDBRANCH   1   5
BRANCH   1  14
ATOM     14  O   UNL     1      21.875   5.111  50.584  1.00  0.00    -0.453 OA
BRANCH  14  15
ATOM     15  C   UNL     1      21.327   4.171  51.397  1.00  0.00     0.338 C 
ATOM     16  O   UNL     1      20.139   4.086  51.670  1.00  0.00    -0.246 OA
BRANCH  15  17
ATOM     17  C   UNL     1      22.364   3.239  51.914  1.00  0.00     0.060 A 
ATOM     18  C   UNL     1      23.411   3.768  52.673  1.00  0.00     0.018 A 
ATOM     19  C   UNL     1      22.333   1.863  51.666  1.00  0.00     0.018 A 
ATOM     20  C   UNL     1      24.409   2.929  53.179  1.00  0.00     0.027 A 
ATOM     21  C   UNL     1      23.337   1.029  52.180  1.00  0.00     0.027 A 
ATOM     22  C   UNL     1      24.388   1.545  52.946  1.00  0.00     0.038 A 
BRANCH  22  23
ATOM     23  N   UNL     1      25.425   0.762  53.479  1.00  0.00    -0.361 N 
ATOM     24  H   UNL     1      25.208  -0.230  53.601  1.00  0.00     0.166 HD
BRANCH  23  25
ATOM     25  C   UNL     1      26.709   1.120  53.811  1.00  0.00     0.099 C 
ATOM     26  C   UNL     1      27.805   0.365  53.698  1.00  0.00     0.085 C 
ATOM     27  C   UNL     1      27.877  -1.010  53.192  1.00  0.00     0.191 C 
ATOM     28  C   UNL     1      29.169   0.771  54.062  1.00  0.00     0.191 C 
ATOM     29  O   UNL     1      26.966  -1.708  52.794  1.00  0.00    -0.289 OA
ATOM     30  C   UNL     1      29.300  -1.396  53.259  1.00  0.00     0.057 C 
ATOM     31  C   UNL     1      30.032  -0.386  53.753  1.00  0.00     0.057 C 
ATOM     32  O   UNL     1      29.540   1.828  54.525  1.00  0.00    -0.289 OA
ENDBRANCH  23  25
ENDBRANCH  22  23
ENDBRANCH  15  17
ENDBRANCH  14  15
ENDBRANCH   1  14
TORSDOF 10
ENDMDL
MODEL 2
REMARK VINA RESULT:    -7.325      2.331      3.438
REMARK INTER + INTRA:         -13.118
REMARK INTER:                 -11.528
REMARK INTRA:                  -1.590
REMARK UNBOUND:                -1.510
REMARK SMILES COC[C@@H](Cn1ccnc1[N+](=O)[O-])OC(=O)c1ccc(NC=C2C(=O)C=CC2=O)cc1
REMARK SMILES IDX 4 1 3 2 2 3 1 4 5 5 6 6 7 7 10 8 8 9 9 10 11 11 12 12 13 13
REMARK SMILES IDX 14 14 15 15 16 16 17 17 18 18 31 19 19 20 30 21 20 22 21 23
REMARK SMILES IDX 22 25 23 26 24 27 28 28 25 29 26 30 27 31 29 32
REMARK H PARENT 21 24
ROOT
ATOM      1  C   UNL     1      19.674   3.310  51.029  1.00  0.00     0.237 C 
ENDROOT
BRANCH   1   2
ATOM      2  C   UNL     1      18.230   3.734  51.346  1.00  0.00     0.208 C 
BRANCH   2   3
ATOM      3  O   UNL     1      17.401   2.619  51.693  1.00  0.00    -0.381 OA
ATOM      4  C   UNL     1      16.278   2.451  50.838  1.00  0.00     0.195 C 
ENDBRANCH   2   3
ENDBRANCH   1   2
BRANCH   1   5
ATOM      5  C   UNL     1      20.690   4.457  51.169  1.00  0.00     0.253 C 
BRANCH   5   6
ATOM      6  N   UNL     1      21.848   4.361  50.297  1.00  0.00    -0.226 N 
ATOM      7  C   UNL     1      21.812   3.808  49.035  1.00  0.00     0.204 A 
ATOM      8  C   UNL     1      23.134   4.790  50.493  1.00  0.00     0.434 A 
ATOM      9  C   UNL     1      23.077   3.980  48.521  1.00  0.00     0.245 A 
ATOM     10  N   UNL     1      23.892   4.600  49.429  1.00  0.00    -0.074 NA
BRANCH   8  11
ATOM     11  N   UNL     1      23.626   5.379  51.703  1.00  0.00    -0.047 N 
ATOM     12  O   UNL     1      23.688   4.648  52.700  1.00  0.00    -0.390 OA
ATOM     13  O   UNL     1      23.943   6.576  51.662  1.00  0.00    -0.390 OA
ENDBRANCH   8  11
ENDBRANCH   5   6
ENDBRANCH   1   5
BRANCH   1  14
ATOM     14  O   UNL     1      20.028   2.220  51.910  1.00  0.00    -0.453 OA
BRANCH  14  15
ATOM     15  C   UNL     1      20.629   1.159  51.311  1.00  0.00     0.338 C 
ATOM     16  O   UNL     1      20.220   0.597  50.307  1.00  0.00    -0.246 OA
BRANCH  15  17
ATOM     17  C   UNL     1      21.868   0.767  52.034  1.00  0.00     0.060 A 
ATOM     18  C   UNL     1      21.764  -0.169  53.067  1.00  0.00     0.018 A 
ATOM     19  C   UNL     1      23.123   1.299  51.723  1.00  0.00     0.018 A 
ATOM     20  C   UNL     1      22.903  -0.567  53.775  1.00  0.00     0.027 A 
ATOM     21  C   UNL     1      24.259   0.891  52.437  1.00  0.00     0.027 A 
ATOM     22  C   UNL     1      24.171  -0.048  53.470  1.00  0.00     0.038 A 
BRANCH  22  23
ATOM     23  N   UNL     1      25.271  -0.487  54.225  1.00  0.00    -0.361 N 
ATOM     24  H   UNL     1      25.175  -1.416  54.642  1.00  0.00     0.166 HD
BRANCH  23  25
ATOM     25  C   UNL     1      26.482   0.124  54.442  1.00  0.00     0.099 C 
ATOM     26  C   UNL     1      27.677  -0.291  54.014  1.00  0.00     0.085 C 
ATOM     27  C   UNL     1      27.956  -1.490  53.214  1.00  0.00     0.191 C 
ATOM     28  C   UNL     1      28.959   0.380  54.260  1.00  0.00     0.191 C 
ATOM     29  O   UNL     1      27.165  -2.317  52.806  1.00  0.00    -0.289 OA
ATOM     30  C   UNL     1      29.415  -1.503  52.993  1.00  0.00     0.057 C 
ATOM     31  C   UNL     1      29.984  -0.443  53.587  1.00  0.00     0.057 C 
ATOM     32  O   UNL     1      29.167   1.398  54.886  1.00  0.00    -0.289 OA
ENDBRANCH  23  25
ENDBRANCH  22  23
ENDBRANCH  15  17
ENDBRANCH  14  15
ENDBRANCH   1  14
TORSDOF 10
ENDMDL
MODEL 3
REMARK VINA RESULT:    -7.316      2.324      3.398
REMARK INTER + INTRA:         -13.103
REMARK INTER:                 -11.438
REMARK INTRA:                  -1.665
REMARK UNBOUND:                -1.510
REMARK SMILES COC[C@@H](Cn1ccnc1[N+](=O)[O-])OC(=O)c1ccc(NC=C2C(=O)C=CC2=O)cc1
REMARK SMILES IDX 4 1 3 2 2 3 1 4 5 5 6 6 7 7 10 8 8 9 9 10 11 11 12 12 13 13
REMARK SMILES IDX 14 14 15 15 16 16 17 17 18 18 31 19 19 20 30 21 20 22 21 23
REMARK SMILES IDX 22 25 23 26 24 27 28 28 25 29 26 30 27 31 29 32
REMARK H PARENT 21 24
ROOT
ATOM      1  C   UNL     1      19.926   3.210  50.340  1.00  0.00     0.237 C 
ENDROOT
BRANCH   1   2
ATOM      2  C   UNL     1      18.399   3.125  50.507  1.00  0.00     0.208 C 
BRANCH   2   3
ATOM      3  O   UNL     1      17.920   3.974  51.556  1.00  0.00    -0.381 OA
ATOM      4  C   UNL     1      16.503   4.013  51.661  1.00  0.00     0.195 C 
ENDBRANCH   2   3
ENDBRANCH   1   2
BRANCH   1   5
ATOM      5  C   UNL     1      20.469   4.646  50.437  1.00  0.00     0.253 C 
BRANCH   5   6
ATOM      6  N   UNL     1      21.911   4.749  50.581  1.00  0.00    -0.226 N 
ATOM      7  C   UNL     1      22.536   5.196  51.726  1.00  0.00     0.204 A 
ATOM      8  C   UNL     1      22.909   4.422  49.701  1.00  0.00     0.434 A 
ATOM      9  C   UNL     1      23.884   5.068  51.483  1.00  0.00     0.245 A 
ATOM     10  N   UNL     1      24.109   4.577  50.226  1.00  0.00    -0.074 NA
BRANCH   8  11
ATOM     11  N   UNL     1      22.700   3.964  48.359  1.00  0.00    -0.047 N 
ATOM     12  O   UNL     1      22.793   2.746  48.160  1.00  0.00    -0.390 OA
ATOM     13  O   UNL     1      22.452   4.821  47.500  1.00  0.00    -0.390 OA
ENDBRANCH   8  11
ENDBRANCH   5   6
ENDBRANCH   1   5
BRANCH   1  14
ATOM     14  O   UNL     1      20.538   2.375  51.347  1.00  0.00    -0.453 OA
BRANCH  14  15
ATOM     15  C   UNL     1      21.123   1.239  50.886  1.00  0.00     0.338 C 
ATOM     16  O   UNL     1      20.826   0.669  49.847  1.00  0.00    -0.246 OA
BRANCH  15  17
ATOM     17  C   UNL     1      22.191   0.774  51.810  1.00  0.00     0.060 A 
ATOM     18  C   UNL     1      23.437   1.404  51.754  1.00  0.00     0.018 A 
ATOM     19  C   UNL     1      21.997  -0.266  52.725  1.00  0.00     0.018 A 
ATOM     20  C   UNL     1      24.471   0.999  52.605  1.00  0.00     0.027 A 
ATOM     21  C   UNL     1      23.039  -0.663  53.576  1.00  0.00     0.027 A 
ATOM     22  C   UNL     1      24.290  -0.038  53.533  1.00  0.00     0.038 A 
BRANCH  22  23
ATOM     23  N   UNL     1      25.372  -0.397  54.353  1.00  0.00    -0.361 N 
ATOM     24  H   UNL     1      25.262  -1.274  54.867  1.00  0.00     0.166 HD
BRANCH  23  25
ATOM     25  C   UNL     1      26.583   0.228  54.526  1.00  0.00     0.099 C 
ATOM     26  C   UNL     1      27.770  -0.184  54.070  1.00  0.00     0.085 C 
ATOM     27  C   UNL     1      28.037  -1.393  53.283  1.00  0.00     0.191 C 
ATOM     28  C   UNL     1      29.052   0.503  54.269  1.00  0.00     0.191 C 
ATOM     29  O   UNL     1      27.242  -2.233  52.911  1.00  0.00    -0.289 OA
ATOM     30  C   UNL     1      29.489  -1.397  53.021  1.00  0.00     0.057 C 
ATOM     31  C   UNL     1      30.064  -0.322  53.581  1.00  0.00     0.057 C 
ATOM     32  O   UNL     1      29.267   1.533  54.872  1.00  0.00    -0.289 OA
ENDBRANCH  23  25
ENDBRANCH  22  23
ENDBRANCH  15  17
ENDBRANCH  14  15
ENDBRANCH   1  14
TORSDOF 10
ENDMDL
MODEL 4
REMARK VINA RESULT:    -7.264      3.515      8.642
REMARK INTER + INTRA:         -13.021
REMARK INTER:                 -11.680
REMARK INTRA:                  -1.341
REMARK UNBOUND:                -1.510
REMARK SMILES COC[C@@H](Cn1ccnc1[N+](=O)[O-])OC(=O)c1ccc(NC=C2C(=O)C=CC2=O)cc1
REMARK SMILES IDX 4 1 3 2 2 3 1 4 5 5 6 6 7 7 10 8 8 9 9 10 11 11 12 12 13 13
REMARK SMILES IDX 14 14 15 15 16 16 17 17 18 18 31 19 19 20 30 21 20 22 21 23
REMARK SMILES IDX 22 25 23 26 24 27 28 28 25 29 26 30 27 31 29 32
REMARK H PARENT 21 24
ROOT
ATOM      1  C   UNL     1      25.269   2.317  51.745  1.00  0.00     0.237 C 
ENDROOT
BRANCH   1   2
ATOM      2  C   UNL     1      26.779   2.061  51.879  1.00  0.00     0.208 C 
BRANCH   2   3
ATOM      3  O   UNL     1      27.186   1.920  53.244  1.00  0.00    -0.381 OA
ATOM      4  C   UNL     1      28.498   2.403  53.506  1.00  0.00     0.195 C 
ENDBRANCH   2   3
ENDBRANCH   1   2
BRANCH   1   5
ATOM      5  C   UNL     1      24.511   2.201  53.078  1.00  0.00     0.253 C 
BRANCH   5   6
ATOM      6  N   UNL     1      23.645   1.040  53.194  1.00  0.00    -0.226 N 
ATOM      7  C   UNL     1      22.289   1.070  52.950  1.00  0.00     0.204 A 
ATOM      8  C   UNL     1      23.950  -0.257  53.514  1.00  0.00     0.434 A 
ATOM      9  C   UNL     1      21.860  -0.230  53.093  1.00  0.00     0.245 A 
ATOM     10  N   UNL     1      22.900  -1.051  53.433  1.00  0.00    -0.074 NA
BRANCH   8  11
ATOM     11  N   UNL     1      25.250  -0.723  53.895  1.00  0.00    -0.047 N 
ATOM     12  O   UNL     1      25.936  -1.259  53.015  1.00  0.00    -0.390 OA
ATOM     13  O   UNL     1      25.586  -0.561  55.076  1.00  0.00    -0.390 OA
ENDBRANCH   8  11
ENDBRANCH   5   6
ENDBRANCH   1   5
BRANCH   1  14
ATOM     14  O   UNL     1      25.082   3.633  51.177  1.00  0.00    -0.453 OA
BRANCH  14  15
ATOM     15  C   UNL     1      24.982   3.675  49.823  1.00  0.00     0.338 C 
ATOM     16  O   UNL     1      24.256   2.960  49.151  1.00  0.00    -0.246 OA
BRANCH  15  17
ATOM     17  C   UNL     1      25.873   4.721  49.253  1.00  0.00     0.060 A 
ATOM     18  C   UNL     1      27.213   4.398  49.024  1.00  0.00     0.018 A 
ATOM     19  C   UNL     1      25.423   6.008  48.943  1.00  0.00     0.018 A 
ATOM     20  C   UNL     1      28.087   5.350  48.490  1.00  0.00     0.027 A 
ATOM     21  C   UNL     1      26.305   6.955  48.405  1.00  0.00     0.027 A 
ATOM     22  C   UNL     1      27.649   6.644  48.166  1.00  0.00     0.038 A 
BRANCH  22  23
ATOM     23  N   UNL     1      28.581   7.552  47.638  1.00  0.00    -0.361 N 
ATOM     24  H   UNL     1      29.441   7.136  47.274  1.00  0.00     0.166 HD
BRANCH  23  25
ATOM     25  C   UNL     1      28.486   8.914  47.489  1.00  0.00     0.099 C 
ATOM     26  C   UNL     1      29.237   9.840  48.092  1.00  0.00     0.085 C 
ATOM     27  C   UNL     1      30.328   9.603  49.045  1.00  0.00     0.191 C 
ATOM     28  C   UNL     1      29.116  11.293  47.916  1.00  0.00     0.191 C 
ATOM     29  O   UNL     1      30.739   8.537  49.459  1.00  0.00    -0.289 OA
ATOM     30  C   UNL     1      30.844  10.935  49.414  1.00  0.00     0.057 C 
ATOM     31  C   UNL     1      30.157  11.893  48.774  1.00  0.00     0.057 C 
ATOM     32  O   UNL     1      28.333  11.903  47.220  1.00  0.00    -0.289 OA
ENDBRANCH  23  25
ENDBRANCH  22  23
ENDBRANCH  15  17
ENDBRANCH  14  15
ENDBRANCH   1  14
TORSDOF 10
ENDMDL
MODEL 5
REMARK VINA RESULT:    -7.147      2.104      2.745
REMARK INTER + INTRA:         -12.835
REMARK INTER:                 -11.005
REMARK INTRA:                  -1.830
REMARK UNBOUND:                -1.510
REMARK SMILES COC[C@@H](Cn1ccnc1[N+](=O)[O-])OC(=O)c1ccc(NC=C2C(=O)C=CC2=O)cc1
REMARK SMILES IDX 4 1 3 2 2 3 1 4 5 5 6 6 7 7 10 8 8 9 9 10 11 11 12 12 13 13
REMARK SMILES IDX 14 14 15 15 16 16 17 17 18 18 31 19 19 20 30 21 20 22 21 23
REMARK SMILES IDX 22 25 23 26 24 27 28 28 25 29 26 30 27 31 29 32
REMARK H PARENT 21 24
ROOT
ATOM      1  C   UNL     1      22.330   4.808  47.385  1.00  0.00     0.237 C 
ENDROOT
BRANCH   1   2
ATOM      2  C   UNL     1      21.215   4.765  46.326  1.00  0.00     0.208 C 
BRANCH   2   3
ATOM      3  O   UNL     1      21.721   4.488  45.016  1.00  0.00    -0.381 OA
ATOM      4  C   UNL     1      20.751   3.952  44.127  1.00  0.00     0.195 C 
ENDBRANCH   2   3
ENDBRANCH   1   2
BRANCH   1   5
ATOM      5  C   UNL     1      22.602   6.221  47.926  1.00  0.00     0.253 C 
BRANCH   5   6
ATOM      6  N   UNL     1      23.618   6.298  48.961  1.00  0.00    -0.226 N 
ATOM      7  C   UNL     1      24.972   6.323  48.704  1.00  0.00     0.204 A 
ATOM      8  C   UNL     1      23.484   6.389  50.322  1.00  0.00     0.434 A 
ATOM      9  C   UNL     1      25.578   6.476  49.930  1.00  0.00     0.245 A 
ATOM     10  N   UNL     1      24.646   6.527  50.931  1.00  0.00    -0.074 NA
BRANCH   8  11
ATOM     11  N   UNL     1      22.237   6.343  51.027  1.00  0.00    -0.047 N 
ATOM     12  O   UNL     1      21.562   7.381  51.044  1.00  0.00    -0.390 OA
ATOM     13  O   UNL     1      21.933   5.274  51.571  1.00  0.00    -0.390 OA
ENDBRANCH   8  11
ENDBRANCH   5   6
ENDBRANCH   1   5
BRANCH   1  14
ATOM     14  O   UNL     1      21.962   3.922  48.465  1.00  0.00    -0.453 OA
BRANCH  14  15
ATOM     15  C   UNL     1      22.588   2.716  48.470  1.00  0.00     0.338 C 
ATOM     16  O   UNL     1      22.644   1.952  47.519  1.00  0.00    -0.246 OA
BRANCH  15  17
ATOM     17  C   UNL     1      23.213   2.442  49.791  1.00  0.00     0.060 A 
ATOM     18  C   UNL     1      24.521   2.881  50.009  1.00  0.00     0.018 A 
ATOM     19  C   UNL     1      22.544   1.764  50.816  1.00  0.00     0.018 A 
ATOM     20  C   UNL     1      25.149   2.645  51.237  1.00  0.00     0.027 A 
ATOM     21  C   UNL     1      23.181   1.535  52.044  1.00  0.00     0.027 A 
ATOM     22  C   UNL     1      24.489   1.972  52.277  1.00  0.00     0.038 A 
BRANCH  22  23
ATOM     23  N   UNL     1      25.181   1.764  53.482  1.00  0.00    -0.361 N 
ATOM     24  H   UNL     1      24.615   1.413  54.258  1.00  0.00     0.166 HD
BRANCH  23  25
ATOM     25  C   UNL     1      26.517   1.912  53.760  1.00  0.00     0.099 C 
ATOM     26  C   UNL     1      27.466   0.977  53.656  1.00  0.00     0.085 C 
ATOM     27  C   UNL     1      27.285  -0.413  53.220  1.00  0.00     0.191 C 
ATOM     28  C   UNL     1      28.890   1.160  53.960  1.00  0.00     0.191 C 
ATOM     29  O   UNL     1      26.255  -0.962  52.884  1.00  0.00    -0.289 OA
ATOM     30  C   UNL     1      28.623  -1.033  53.268  1.00  0.00     0.057 C 
ATOM     31  C   UNL     1      29.533  -0.141  53.688  1.00  0.00     0.057 C 
ATOM     32  O   UNL     1      29.452   2.158  54.357  1.00  0.00    -0.289 OA
ENDBRANCH  23  25
ENDBRANCH  22  23
ENDBRANCH  15  17
ENDBRANCH  14  15
ENDBRANCH   1  14
TORSDOF 10
ENDMDL
MODEL 6
REMARK VINA RESULT:    -7.135      3.056      7.156
REMARK INTER + INTRA:         -12.816
REMARK INTER:                 -11.487
REMARK INTRA:                  -1.329
REMARK UNBOUND:                -1.510
REMARK SMILES COC[C@@H](Cn1ccnc1[N+](=O)[O-])OC(=O)c1ccc(NC=C2C(=O)C=CC2=O)cc1
REMARK SMILES IDX 4 1 3 2 2 3 1 4 5 5 6 6 7 7 10 8 8 9 9 10 11 11 12 12 13 13
REMARK SMILES IDX 14 14 15 15 16 16 17 17 18 18 31 19 19 20 30 21 20 22 21 23
REMARK SMILES IDX 22 25 23 26 24 27 28 28 25 29 26 30 27 31 29 32
REMARK H PARENT 21 24
ROOT
ATOM      1  C   UNL     1      23.412   2.957  52.013  1.00  0.00     0.237 C 
ENDROOT
BRANCH   1   2
ATOM      2  C   UNL     1      21.915   2.897  52.359  1.00  0.00     0.208 C 
BRANCH   2   3
ATOM      3  O   UNL     1      21.232   4.110  52.023  1.00  0.00    -0.381 OA
ATOM      4  C   UNL     1      20.095   3.917  51.191  1.00  0.00     0.195 C 
ENDBRANCH   2   3
ENDBRANCH   1   2
BRANCH   1   5
ATOM      5  C   UNL     1      24.322   2.493  53.163  1.00  0.00     0.253 C 
BRANCH   5   6
ATOM      6  N   UNL     1      25.096   1.294  52.890  1.00  0.00    -0.226 N 
ATOM      7  C   UNL     1      26.382   1.311  52.394  1.00  0.00     0.204 A 
ATOM      8  C   UNL     1      24.771  -0.024  53.075  1.00  0.00     0.434 A 
ATOM      9  C   UNL     1      26.778  -0.007  52.353  1.00  0.00     0.245 A 
ATOM     10  N   UNL     1      25.775  -0.830  52.787  1.00  0.00    -0.074 NA
BRANCH   8  11
ATOM     11  N   UNL     1      23.497  -0.498  53.527  1.00  0.00    -0.047 N 
ATOM     12  O   UNL     1      23.426  -0.888  54.699  1.00  0.00    -0.390 OA
ATOM     13  O   UNL     1      22.567  -0.491  52.709  1.00  0.00    -0.390 OA
ENDBRANCH   8  11
ENDBRANCH   5   6
ENDBRANCH   1   5
BRANCH   1  14
ATOM     14  O   UNL     1      23.637   2.145  50.840  1.00  0.00    -0.453 OA
BRANCH  14  15
ATOM     15  C   UNL     1      23.519   2.792  49.651  1.00  0.00     0.338 C 
ATOM     16  O   UNL     1      22.593   2.654  48.867  1.00  0.00    -0.246 OA
BRANCH  15  17
ATOM     17  C   UNL     1      24.668   3.709  49.424  1.00  0.00     0.060 A 
ATOM     18  C   UNL     1      24.400   5.060  49.188  1.00  0.00     0.018 A 
ATOM     19  C   UNL     1      25.996   3.272  49.435  1.00  0.00     0.018 A 
ATOM     20  C   UNL     1      25.449   5.959  48.969  1.00  0.00     0.027 A 
ATOM     21  C   UNL     1      27.041   4.181  49.218  1.00  0.00     0.027 A 
ATOM     22  C   UNL     1      26.788   5.538  48.984  1.00  0.00     0.038 A 
BRANCH  22  23
ATOM     23  N   UNL     1      27.791   6.492  48.752  1.00  0.00    -0.361 N 
ATOM     24  H   UNL     1      27.553   7.452  49.013  1.00  0.00     0.166 HD
BRANCH  23  25
ATOM     25  C   UNL     1      29.067   6.321  48.274  1.00  0.00     0.099 C 
ATOM     26  C   UNL     1      30.071   7.200  48.338  1.00  0.00     0.085 C 
ATOM     27  C   UNL     1      30.029   8.540  48.935  1.00  0.00     0.191 C 
ATOM     28  C   UNL     1      31.429   6.993  47.818  1.00  0.00     0.191 C 
ATOM     29  O   UNL     1      29.087   9.091  49.467  1.00  0.00    -0.289 OA
ATOM     30  C   UNL     1      31.381   9.106  48.762  1.00  0.00     0.057 C 
ATOM     31  C   UNL     1      32.174   8.229  48.129  1.00  0.00     0.057 C 
ATOM     32  O   UNL     1      31.875   6.021  47.246  1.00  0.00    -0.289 OA
ENDBRANCH  23  25
ENDBRANCH  22  23
ENDBRANCH  15  17
ENDBRANCH  14  15
ENDBRANCH   1  14
TORSDOF 10
ENDMDL
MODEL 7
REMARK VINA RESULT:    -7.113      3.074      7.481
REMARK INTER + INTRA:         -12.782
REMARK INTER:                 -11.458
REMARK INTRA:                  -1.324
REMARK UNBOUND:                -1.510
REMARK SMILES COC[C@@H](Cn1ccnc1[N+](=O)[O-])OC(=O)c1ccc(NC=C2C(=O)C=CC2=O)cc1
REMARK SMILES IDX 4 1 3 2 2 3 1 4 5 5 6 6 7 7 10 8 8 9 9 10 11 11 12 12 13 13
REMARK SMILES IDX 14 14 15 15 16 16 17 17 18 18 31 19 19 20 30 21 20 22 21 23
REMARK SMILES IDX 22 25 23 26 24 27 28 28 25 29 26 30 27 31 29 32
REMARK H PARENT 21 24
ROOT
ATOM      1  C   UNL     1      23.774   3.126  52.018  1.00  0.00     0.237 C 
ENDROOT
BRANCH   1   2
ATOM      2  C   UNL     1      22.275   3.316  52.308  1.00  0.00     0.208 C 
BRANCH   2   3
ATOM      3  O   UNL     1      21.808   4.612  51.919  1.00  0.00    -0.381 OA
ATOM      4  C   UNL     1      20.656   4.582  51.087  1.00  0.00     0.195 C 
ENDBRANCH   2   3
ENDBRANCH   1   2
BRANCH   1   5
ATOM      5  C   UNL     1      24.556   2.544  53.207  1.00  0.00     0.253 C 
BRANCH   5   6
ATOM      6  N   UNL     1      25.265   1.307  52.931  1.00  0.00    -0.226 N 
ATOM      7  C   UNL     1      26.563   1.256  52.471  1.00  0.00     0.204 A 
ATOM      8  C   UNL     1      24.858   0.007  53.079  1.00  0.00     0.434 A 
ATOM      9  C   UNL     1      26.882  -0.082  52.413  1.00  0.00     0.245 A 
ATOM     10  N   UNL     1      25.820  -0.853  52.802  1.00  0.00    -0.074 NA
BRANCH   8  11
ATOM     11  N   UNL     1      23.545  -0.400  53.486  1.00  0.00    -0.047 N 
ATOM     12  O   UNL     1      23.432  -0.879  54.621  1.00  0.00    -0.390 OA
ATOM     13  O   UNL     1      22.627  -0.248  52.669  1.00  0.00    -0.390 OA
ENDBRANCH   8  11
ENDBRANCH   5   6
ENDBRANCH   1   5
BRANCH   1  14
ATOM     14  O   UNL     1      23.905   2.265  50.865  1.00  0.00    -0.453 OA
BRANCH  14  15
ATOM     15  C   UNL     1      23.775   2.880  49.660  1.00  0.00     0.338 C 
ATOM     16  O   UNL     1      22.855   2.701  48.877  1.00  0.00    -0.246 OA
BRANCH  15  17
ATOM     17  C   UNL     1      24.903   3.817  49.413  1.00  0.00     0.060 A 
ATOM     18  C   UNL     1      24.606   5.160  49.164  1.00  0.00     0.018 A 
ATOM     19  C   UNL     1      26.240   3.407  49.419  1.00  0.00     0.018 A 
ATOM     20  C   UNL     1      25.635   6.077  48.926  1.00  0.00     0.027 A 
ATOM     21  C   UNL     1      27.265   4.335  49.183  1.00  0.00     0.027 A 
ATOM     22  C   UNL     1      26.983   5.683  48.936  1.00  0.00     0.038 A 
BRANCH  22  23
ATOM     23  N   UNL     1      27.965   6.654  48.684  1.00  0.00    -0.361 N 
ATOM     24  H   UNL     1      28.873   6.293  48.384  1.00  0.00     0.166 HD
BRANCH  23  25
ATOM     25  C   UNL     1      27.871   8.024  48.728  1.00  0.00     0.099 C 
ATOM     26  C   UNL     1      28.878   8.891  48.869  1.00  0.00     0.085 C 
ATOM     27  C   UNL     1      30.303   8.569  49.005  1.00  0.00     0.191 C 
ATOM     28  C   UNL     1      28.752  10.353  48.915  1.00  0.00     0.191 C 
ATOM     29  O   UNL     1      30.822   7.471  49.020  1.00  0.00    -0.289 OA
ATOM     30  C   UNL     1      31.005   9.862  49.122  1.00  0.00     0.057 C 
ATOM     31  C   UNL     1      30.125  10.873  49.072  1.00  0.00     0.057 C 
ATOM     32  O   UNL     1      27.744  11.024  48.844  1.00  0.00    -0.289 OA
ENDBRANCH  23  25
ENDBRANCH  22  23
ENDBRANCH  15  17
ENDBRANCH  14  15
ENDBRANCH   1  14
TORSDOF 10
ENDMDL
MODEL 8
REMARK VINA RESULT:    -6.947      3.364      7.965
REMARK INTER + INTRA:         -12.518
REMARK INTER:                 -11.268
REMARK INTRA:                  -1.251
REMARK UNBOUND:                -1.510
REMARK SMILES COC[C@@H](Cn1ccnc1[N+](=O)[O-])OC(=O)c1ccc(NC=C2C(=O)C=CC2=O)cc1
REMARK SMILES IDX 4 1 3 2 2 3 1 4 5 5 6 6 7 7 10 8 8 9 9 10 11 11 12 12 13 13
REMARK SMILES IDX 14 14 15 15 16 16 17 17 18 18 31 19 19 20 30 21 20 22 21 23
REMARK SMILES IDX 22 25 23 26 24 27 28 28 25 29 26 30 27 31 29 32
REMARK H PARENT 21 24
ROOT
ATOM      1  C   UNL     1      24.481   0.979  52.229  1.00  0.00     0.237 C 
ENDROOT
BRANCH   1   2
ATOM      2  C   UNL     1      25.716   0.084  52.433  1.00  0.00     0.208 C 
BRANCH   2   3
ATOM      3  O   UNL     1      26.187   0.113  53.785  1.00  0.00    -0.381 OA
ATOM      4  C   UNL     1      27.366   0.886  53.966  1.00  0.00     0.195 C 
ENDBRANCH   2   3
ENDBRANCH   1   2
BRANCH   1   5
ATOM      5  C   UNL     1      23.636   1.151  53.502  1.00  0.00     0.253 C 
BRANCH   5   6
ATOM      6  N   UNL     1      22.627   0.127  53.713  1.00  0.00    -0.226 N 
ATOM      7  C   UNL     1      22.800  -0.957  54.548  1.00  0.00     0.204 A 
ATOM      8  C   UNL     1      21.360   0.021  53.203  1.00  0.00     0.434 A 
ATOM      9  C   UNL     1      21.601  -1.633  54.528  1.00  0.00     0.245 A 
ATOM     10  N   UNL     1      20.707  -1.014  53.697  1.00  0.00    -0.074 NA
BRANCH   8  11
ATOM     11  N   UNL     1      20.787   0.916  52.241  1.00  0.00    -0.047 N 
ATOM     12  O   UNL     1      20.716   0.515  51.073  1.00  0.00    -0.390 OA
ATOM     13  O   UNL     1      20.414   2.024  52.650  1.00  0.00    -0.390 OA
ENDBRANCH   8  11
ENDBRANCH   5   6
ENDBRANCH   1   5
BRANCH   1  14
ATOM     14  O   UNL     1      24.930   2.266  51.750  1.00  0.00    -0.453 OA
BRANCH  14  15
ATOM     15  C   UNL     1      24.338   2.702  50.607  1.00  0.00     0.338 C 
ATOM     16  O   UNL     1      23.267   2.302  50.175  1.00  0.00    -0.246 OA
BRANCH  15  17
ATOM     17  C   UNL     1      25.161   3.747  49.943  1.00  0.00     0.060 A 
ATOM     18  C   UNL     1      26.495   3.453  49.648  1.00  0.00     0.018 A 
ATOM     19  C   UNL     1      24.654   5.007  49.608  1.00  0.00     0.018 A 
ATOM     20  C   UNL     1      27.306   4.406  49.024  1.00  0.00     0.027 A 
ATOM     21  C   UNL     1      25.474   5.955  48.980  1.00  0.00     0.027 A 
ATOM     22  C   UNL     1      26.810   5.672  48.675  1.00  0.00     0.038 A 
BRANCH  22  23
ATOM     23  N   UNL     1      27.681   6.583  48.056  1.00  0.00    -0.361 N 
ATOM     24  H   UNL     1      27.244   7.435  47.697  1.00  0.00     0.166 HD
BRANCH  23  25
ATOM     25  C   UNL     1      29.045   6.525  47.906  1.00  0.00     0.099 C 
ATOM     26  C   UNL     1      29.938   7.417  48.344  1.00  0.00     0.085 C 
ATOM     27  C   UNL     1      29.654   8.654  49.082  1.00  0.00     0.191 C 
ATOM     28  C   UNL     1      31.393   7.333  48.171  1.00  0.00     0.191 C 
ATOM     29  O   UNL     1      28.572   9.090  49.420  1.00  0.00    -0.289 OA
ATOM     30  C   UNL     1      30.964   9.283  49.341  1.00  0.00     0.057 C 
ATOM     31  C   UNL     1      31.949   8.534  48.824  1.00  0.00     0.057 C 
ATOM     32  O   UNL     1      32.035   6.471  47.610  1.00  0.00    -0.289 OA
ENDBRANCH  23  25
ENDBRANCH  22  23
ENDBRANCH  15  17
ENDBRANCH  14  15
ENDBRANCH   1  14
TORSDOF 10
ENDMDL
MODEL 9
REMARK VINA RESULT:    -6.919      2.573      4.134
REMARK INTER + INTRA:         -12.475
REMARK INTER:                 -10.739
REMARK INTRA:                  -1.736
REMARK UNBOUND:                -1.510
REMARK SMILES COC[C@@H](Cn1ccnc1[N+](=O)[O-])OC(=O)c1ccc(NC=C2C(=O)C=CC2=O)cc1
REMARK SMILES IDX 4 1 3 2 2 3 1 4 5 5 6 6 7 7 10 8 8 9 9 10 11 11 12 12 13 13
REMARK SMILES IDX 14 14 15 15 16 16 17 17 18 18 31 19 19 20 30 21 20 22 21 23
REMARK SMILES IDX 22 25 23 26 24 27 28 28 25 29 26 30 27 31 29 32
REMARK H PARENT 21 24
ROOT
ATOM      1  C   UNL     1      22.039   2.969  48.766  1.00  0.00     0.237 C 
ENDROOT
BRANCH   1   2
ATOM      2  C   UNL     1      21.648   3.195  47.296  1.00  0.00     0.208 C 
BRANCH   2   3
ATOM      3  O   UNL     1      20.490   4.027  47.164  1.00  0.00    -0.381 OA
ATOM      4  C   UNL     1      20.664   5.339  47.683  1.00  0.00     0.195 C 
ENDBRANCH   2   3
ENDBRANCH   1   2
BRANCH   1   5
ATOM      5  C   UNL     1      21.665   1.571  49.287  1.00  0.00     0.253 C 
BRANCH   5   6
ATOM      6  N   UNL     1      21.343   1.508  50.702  1.00  0.00    -0.226 N 
ATOM      7  C   UNL     1      21.774   0.502  51.541  1.00  0.00     0.204 A 
ATOM      8  C   UNL     1      20.623   2.376  51.480  1.00  0.00     0.434 A 
ATOM      9  C   UNL     1      21.325   0.850  52.794  1.00  0.00     0.245 A 
ATOM     10  N   UNL     1      20.618   2.021  52.751  1.00  0.00    -0.074 NA
BRANCH   8  11
ATOM     11  N   UNL     1      19.943   3.541  50.995  1.00  0.00    -0.047 N 
ATOM     12  O   UNL     1      20.451   4.638  51.258  1.00  0.00    -0.390 OA
ATOM     13  O   UNL     1      18.897   3.362  50.357  1.00  0.00    -0.390 OA
ENDBRANCH   8  11
ENDBRANCH   5   6
ENDBRANCH   1   5
BRANCH   1  14
ATOM     14  O   UNL     1      23.462   3.185  48.894  1.00  0.00    -0.453 OA
BRANCH  14  15
ATOM     15  C   UNL     1      23.831   4.101  49.828  1.00  0.00     0.338 C 
ATOM     16  O   UNL     1      23.634   5.303  49.746  1.00  0.00    -0.246 OA
BRANCH  15  17
ATOM     17  C   UNL     1      24.505   3.447  50.981  1.00  0.00     0.060 A 
ATOM     18  C   UNL     1      25.711   2.779  50.753  1.00  0.00     0.018 A 
ATOM     19  C   UNL     1      23.978   3.474  52.276  1.00  0.00     0.018 A 
ATOM     20  C   UNL     1      26.379   2.150  51.808  1.00  0.00     0.027 A 
ATOM     21  C   UNL     1      24.657   2.843  53.328  1.00  0.00     0.027 A 
ATOM     22  C   UNL     1      25.868   2.174  53.115  1.00  0.00     0.038 A 
BRANCH  22  23
ATOM     23  N   UNL     1      26.588   1.517  54.126  1.00  0.00    -0.361 N 
ATOM     24  H   UNL     1      26.133   1.489  55.042  1.00  0.00     0.166 HD
BRANCH  23  25
ATOM     25  C   UNL     1      27.791   0.858  54.056  1.00  0.00     0.099 C 
ATOM     26  C   UNL     1      27.995  -0.393  53.634  1.00  0.00     0.085 C 
ATOM     27  C   UNL     1      26.978  -1.335  53.152  1.00  0.00     0.191 C 
ATOM     28  C   UNL     1      29.293  -1.077  53.569  1.00  0.00     0.191 C 
ATOM     29  O   UNL     1      25.781  -1.156  53.055  1.00  0.00    -0.289 OA
ATOM     30  C   UNL     1      27.702  -2.572  52.799  1.00  0.00     0.057 C 
ATOM     31  C   UNL     1      29.014  -2.425  53.036  1.00  0.00     0.057 C 
ATOM     32  O   UNL     1      30.383  -0.650  53.883  1.00  0.00    -0.289 OA
ENDBRANCH  23  25
ENDBRANCH  22  23
ENDBRANCH  15  17
ENDBRANCH  14  15
ENDBRANCH   1  14
TORSDOF 10
ENDMDL
