MODEL 1
REMARK VINA RESULT:    -7.091      0.000      0.000
REMARK INTER + INTRA:         -13.029
REMARK INTER:                 -11.237
REMARK INTRA:                  -1.793
REMARK UNBOUND:                -1.793
REMARK SMILES COC[C@H](Cn1ccnc1[N+](=O)[O-])OC(=O)c1ccc(NC=C2C(=O)C=CC2=O)cc1
REMARK SMILES IDX 4 1 3 2 2 3 1 4 5 5 6 6 7 7 10 8 8 9 9 10 11 11 12 12 13 13
REMARK SMILES IDX 14 14 15 15 16 16 17 17 18 18 31 19 19 20 30 21 20 22 21 23
REMARK SMILES IDX 22 25 23 26 24 27 28 28 25 29 26 30 27 31 29 32
REMARK H PARENT 21 24
ROOT
ATOM      1  C   UNL     1      21.419   3.202  48.864  1.00  0.00     0.237 C 
ENDROOT
BRANCH   1   2
ATOM      2  C   UNL     1      20.809   3.137  47.452  1.00  0.00     0.208 C 
BRANCH   2   3
ATOM      3  O   UNL     1      19.412   2.850  47.550  1.00  0.00    -0.381 OA
ATOM      4  C   UNL     1      18.741   3.776  48.397  1.00  0.00     0.195 C 
ENDBRANCH   2   3
ENDBRANCH   1   2
BRANCH   1   5
ATOM      5  C   UNL     1      22.593   4.187  48.962  1.00  0.00     0.253 C 
BRANCH   5   6
ATOM      6  N   UNL     1      22.252   5.447  49.589  1.00  0.00    -0.226 N 
ATOM      7  C   UNL     1      22.013   6.611  48.896  1.00  0.00     0.204 A 
ATOM      8  C   UNL     1      22.161   5.760  50.919  1.00  0.00     0.434 A 
ATOM      9  C   UNL     1      21.835   7.581  49.858  1.00  0.00     0.245 A 
ATOM     10  N   UNL     1      21.940   7.047  51.115  1.00  0.00    -0.074 NA
BRANCH   8  11
ATOM     11  N   UNL     1      22.275   4.815  51.991  1.00  0.00    -0.047 N 
ATOM     12  O   UNL     1      21.257   4.168  52.276  1.00  0.00    -0.390 OA
ATOM     13  O   UNL     1      23.373   4.731  52.556  1.00  0.00    -0.390 OA
ENDBRANCH   8  11
ENDBRANCH   5   6
ENDBRANCH   1   5
BRANCH   1  14
ATOM     14  O   UNL     1      21.944   1.904  49.236  1.00  0.00    -0.453 OA
BRANCH  14  15
ATOM     15  C   UNL     1      21.327   1.293  50.278  1.00  0.00     0.338 C 
ATOM     16  O   UNL     1      20.125   1.102  50.371  1.00  0.00    -0.246 OA
BRANCH  15  17
ATOM     17  C   UNL     1      22.314   0.887  51.312  1.00  0.00     0.060 A 
ATOM     18  C   UNL     1      22.016  -0.041  52.315  1.00  0.00     0.018 A 
ATOM     19  C   UNL     1      23.586   1.465  51.278  1.00  0.00     0.018 A 
ATOM     20  C   UNL     1      22.987  -0.384  53.264  1.00  0.00     0.027 A 
ATOM     21  C   UNL     1      24.552   1.116  52.232  1.00  0.00     0.027 A 
ATOM     22  C   UNL     1      24.270   0.186  53.239  1.00  0.00     0.038 A 
BRANCH  22  23
ATOM     23  N   UNL     1      25.192  -0.200  54.226  1.00  0.00    -0.361 N 
ATOM     24  H   UNL     1      24.889  -0.964  54.836  1.00  0.00     0.166 HD
BRANCH  23  25
ATOM     25  C   UNL     1      26.446   0.291  54.493  1.00  0.00     0.099 C 
ATOM     26  C   UNL     1      27.611  -0.217  54.080  1.00  0.00     0.085 C 
ATOM     27  C   UNL     1      27.801  -1.411  53.247  1.00  0.00     0.191 C 
ATOM     28  C   UNL     1      28.940   0.325  54.382  1.00  0.00     0.191 C 
ATOM     29  O   UNL     1      26.947  -2.143  52.788  1.00  0.00    -0.289 OA
ATOM     30  C   UNL     1      29.258  -1.555  53.069  1.00  0.00     0.057 C 
ATOM     31  C   UNL     1      29.904  -0.571  53.713  1.00  0.00     0.057 C 
ATOM     32  O   UNL     1      29.220   1.303  55.044  1.00  0.00    -0.289 OA
ENDBRANCH  23  25
ENDBRANCH  22  23
ENDBRANCH  15  17
ENDBRANCH  14  15
ENDBRANCH   1  14
TORSDOF 10
ENDMDL
MODEL 2
REMARK VINA RESULT:    -7.047      5.239      7.918
REMARK INTER + INTRA:         -12.959
REMARK INTER:                 -11.896
REMARK INTRA:                  -1.064
REMARK UNBOUND:                -1.793
REMARK SMILES COC[C@H](Cn1ccnc1[N+](=O)[O-])OC(=O)c1ccc(NC=C2C(=O)C=CC2=O)cc1
REMARK SMILES IDX 4 1 3 2 2 3 1 4 5 5 6 6 7 7 10 8 8 9 9 10 11 11 12 12 13 13
REMARK SMILES IDX 14 14 15 15 16 16 17 17 18 18 31 19 19 20 30 21 20 22 21 23
REMARK SMILES IDX 22 25 23 26 24 27 28 28 25 29 26 30 27 31 29 32
REMARK H PARENT 21 24
ROOT
ATOM      1  C   UNL     1      25.010   1.974  52.054  1.00  0.00     0.237 C 
ENDROOT
BRANCH   1   2
ATOM      2  C   UNL     1      23.812   1.012  52.134  1.00  0.00     0.208 C 
BRANCH   2   3
ATOM      3  O   UNL     1      22.906   1.462  53.144  1.00  0.00    -0.381 OA
ATOM      4  C   UNL     1      21.549   1.294  52.750  1.00  0.00     0.195 C 
ENDBRANCH   2   3
ENDBRANCH   1   2
BRANCH   1   5
ATOM      5  C   UNL     1      25.640   2.257  53.426  1.00  0.00     0.253 C 
BRANCH   5   6
ATOM      6  N   UNL     1      26.908   1.591  53.638  1.00  0.00    -0.226 N 
ATOM      7  C   UNL     1      28.118   2.244  53.700  1.00  0.00     0.204 A 
ATOM      8  C   UNL     1      27.182   0.254  53.750  1.00  0.00     0.434 A 
ATOM      9  C   UNL     1      29.067   1.251  53.801  1.00  0.00     0.245 A 
ATOM     10  N   UNL     1      28.478   0.014  53.820  1.00  0.00    -0.074 NA
BRANCH   8  11
ATOM     11  N   UNL     1      26.192  -0.781  53.803  1.00  0.00    -0.047 N 
ATOM     12  O   UNL     1      25.444  -0.789  54.791  1.00  0.00    -0.390 OA
ATOM     13  O   UNL     1      26.172  -1.591  52.867  1.00  0.00    -0.390 OA
ENDBRANCH   8  11
ENDBRANCH   5   6
ENDBRANCH   1   5
BRANCH   1  14
ATOM     14  O   UNL     1      24.581   3.256  51.531  1.00  0.00    -0.453 OA
BRANCH  14  15
ATOM     15  C   UNL     1      24.414   3.320  50.187  1.00  0.00     0.338 C 
ATOM     16  O   UNL     1      23.571   2.707  49.551  1.00  0.00    -0.246 OA
BRANCH  15  17
ATOM     17  C   UNL     1      25.411   4.237  49.574  1.00  0.00     0.060 A 
ATOM     18  C   UNL     1      26.737   3.861  49.339  1.00  0.00     0.018 A 
ATOM     19  C   UNL     1      24.999   5.527  49.228  1.00  0.00     0.018 A 
ATOM     20  C   UNL     1      27.631   4.770  48.760  1.00  0.00     0.027 A 
ATOM     21  C   UNL     1      25.901   6.430  48.649  1.00  0.00     0.027 A 
ATOM     22  C   UNL     1      27.230   6.067  48.403  1.00  0.00     0.038 A 
BRANCH  22  23
ATOM     23  N   UNL     1      28.182   6.928  47.832  1.00  0.00    -0.361 N 
ATOM     24  H   UNL     1      28.258   6.884  46.812  1.00  0.00     0.166 HD
BRANCH  23  25
ATOM     25  C   UNL     1      29.025   7.827  48.437  1.00  0.00     0.099 C 
ATOM     26  C   UNL     1      30.342   7.694  48.619  1.00  0.00     0.085 C 
ATOM     27  C   UNL     1      31.174   6.557  48.207  1.00  0.00     0.191 C 
ATOM     28  C   UNL     1      31.221   8.670  49.272  1.00  0.00     0.191 C 
ATOM     29  O   UNL     1      30.823   5.545  47.634  1.00  0.00    -0.289 OA
ATOM     30  C   UNL     1      32.549   6.885  48.630  1.00  0.00     0.057 C 
ATOM     31  C   UNL     1      32.576   8.082  49.234  1.00  0.00     0.057 C 
ATOM     32  O   UNL     1      30.926   9.743  49.755  1.00  0.00    -0.289 OA
ENDBRANCH  23  25
ENDBRANCH  22  23
ENDBRANCH  15  17
ENDBRANCH  14  15
ENDBRANCH   1  14
TORSDOF 10
ENDMDL
MODEL 3
REMARK VINA RESULT:    -7.026      5.145      7.232
REMARK INTER + INTRA:         -12.926
REMARK INTER:                 -11.709
REMARK INTRA:                  -1.217
REMARK UNBOUND:                -1.793
REMARK SMILES COC[C@H](Cn1ccnc1[N+](=O)[O-])OC(=O)c1ccc(NC=C2C(=O)C=CC2=O)cc1
REMARK SMILES IDX 4 1 3 2 2 3 1 4 5 5 6 6 7 7 10 8 8 9 9 10 11 11 12 12 13 13
REMARK SMILES IDX 14 14 15 15 16 16 17 17 18 18 31 19 19 20 30 21 20 22 21 23
REMARK SMILES IDX 22 25 23 26 24 27 28 28 25 29 26 30 27 31 29 32
REMARK H PARENT 21 24
ROOT
ATOM      1  C   UNL     1      22.894   2.198  51.463  1.00  0.00     0.237 C 
ENDROOT
BRANCH   1   2
ATOM      2  C   UNL     1      21.369   2.062  51.624  1.00  0.00     0.208 C 
BRANCH   2   3
ATOM      3  O   UNL     1      20.865   3.188  52.346  1.00  0.00    -0.381 OA
ATOM      4  C   UNL     1      19.748   3.778  51.691  1.00  0.00     0.195 C 
ENDBRANCH   2   3
ENDBRANCH   1   2
BRANCH   1   5
ATOM      5  C   UNL     1      23.640   2.167  52.806  1.00  0.00     0.253 C 
BRANCH   5   6
ATOM      6  N   UNL     1      24.652   1.136  52.891  1.00  0.00    -0.226 N 
ATOM      7  C   UNL     1      25.975   1.328  52.563  1.00  0.00     0.204 A 
ATOM      8  C   UNL     1      24.524  -0.185  53.229  1.00  0.00     0.434 A 
ATOM      9  C   UNL     1      26.566   0.090  52.678  1.00  0.00     0.245 A 
ATOM     10  N   UNL     1      25.655  -0.850  53.082  1.00  0.00    -0.074 NA
BRANCH   8  11
ATOM     11  N   UNL     1      23.316  -0.793  53.703  1.00  0.00    -0.047 N 
ATOM     12  O   UNL     1      22.447  -1.046  52.856  1.00  0.00    -0.390 OA
ATOM     13  O   UNL     1      23.230  -1.003  54.920  1.00  0.00    -0.390 OA
ENDBRANCH   8  11
ENDBRANCH   5   6
ENDBRANCH   1   5
BRANCH   1  14
ATOM     14  O   UNL     1      23.215   3.470  50.848  1.00  0.00    -0.453 OA
BRANCH  14  15
ATOM     15  C   UNL     1      23.544   3.424  49.534  1.00  0.00     0.338 C 
ATOM     16  O   UNL     1      22.897   2.863  48.664  1.00  0.00    -0.246 OA
BRANCH  15  17
ATOM     17  C   UNL     1      24.819   4.147  49.283  1.00  0.00     0.060 A 
ATOM     18  C   UNL     1      26.069   3.534  49.405  1.00  0.00     0.018 A 
ATOM     19  C   UNL     1      24.756   5.495  48.919  1.00  0.00     0.018 A 
ATOM     20  C   UNL     1      27.237   4.266  49.157  1.00  0.00     0.027 A 
ATOM     21  C   UNL     1      25.930   6.221  48.674  1.00  0.00     0.027 A 
ATOM     22  C   UNL     1      27.189   5.620  48.786  1.00  0.00     0.038 A 
BRANCH  22  23
ATOM     23  N   UNL     1      28.399   6.294  48.560  1.00  0.00    -0.361 N 
ATOM     24  H   UNL     1      28.335   7.316  48.534  1.00  0.00     0.166 HD
BRANCH  23  25
ATOM     25  C   UNL     1      29.662   5.789  48.373  1.00  0.00     0.099 C 
ATOM     26  C   UNL     1      30.819   6.434  48.557  1.00  0.00     0.085 C 
ATOM     27  C   UNL     1      30.988   7.822  49.002  1.00  0.00     0.191 C 
ATOM     28  C   UNL     1      32.157   5.872  48.348  1.00  0.00     0.191 C 
ATOM     29  O   UNL     1      30.121   8.626  49.281  1.00  0.00    -0.289 OA
ATOM     30  C   UNL     1      32.443   8.060  49.049  1.00  0.00     0.057 C 
ATOM     31  C   UNL     1      33.106   6.954  48.678  1.00  0.00     0.057 C 
ATOM     32  O   UNL     1      32.455   4.754  47.979  1.00  0.00    -0.289 OA
ENDBRANCH  23  25
ENDBRANCH  22  23
ENDBRANCH  15  17
ENDBRANCH  14  15
ENDBRANCH   1  14
TORSDOF 10
ENDMDL
MODEL 4
REMARK VINA RESULT:    -6.994      2.088      2.462
REMARK INTER + INTRA:         -12.876
REMARK INTER:                 -11.300
REMARK INTRA:                  -1.576
REMARK UNBOUND:                -1.793
REMARK SMILES COC[C@H](Cn1ccnc1[N+](=O)[O-])OC(=O)c1ccc(NC=C2C(=O)C=CC2=O)cc1
REMARK SMILES IDX 4 1 3 2 2 3 1 4 5 5 6 6 7 7 10 8 8 9 9 10 11 11 12 12 13 13
REMARK SMILES IDX 14 14 15 15 16 16 17 17 18 18 31 19 19 20 30 21 20 22 21 23
REMARK SMILES IDX 22 25 23 26 24 27 28 28 25 29 26 30 27 31 29 32
REMARK H PARENT 21 24
ROOT
ATOM      1  C   UNL     1      21.562   4.950  48.615  1.00  0.00     0.237 C 
ENDROOT
BRANCH   1   2
ATOM      2  C   UNL     1      20.640   4.757  47.398  1.00  0.00     0.208 C 
BRANCH   2   3
ATOM      3  O   UNL     1      21.060   3.606  46.660  1.00  0.00    -0.381 OA
ATOM      4  C   UNL     1      21.356   3.927  45.306  1.00  0.00     0.195 C 
ENDBRANCH   2   3
ENDBRANCH   1   2
BRANCH   1   5
ATOM      5  C   UNL     1      23.007   5.288  48.220  1.00  0.00     0.253 C 
BRANCH   5   6
ATOM      6  N   UNL     1      23.739   6.010  49.239  1.00  0.00    -0.226 N 
ATOM      7  C   UNL     1      23.249   7.110  49.905  1.00  0.00     0.204 A 
ATOM      8  C   UNL     1      25.018   5.820  49.692  1.00  0.00     0.434 A 
ATOM      9  C   UNL     1      24.285   7.553  50.697  1.00  0.00     0.245 A 
ATOM     10  N   UNL     1      25.387   6.752  50.551  1.00  0.00    -0.074 NA
BRANCH   8  11
ATOM     11  N   UNL     1      25.868   4.733  49.305  1.00  0.00    -0.047 N 
ATOM     12  O   UNL     1      25.426   3.588  49.478  1.00  0.00    -0.390 OA
ATOM     13  O   UNL     1      26.980   5.023  48.845  1.00  0.00    -0.390 OA
ENDBRANCH   8  11
ENDBRANCH   5   6
ENDBRANCH   1   5
BRANCH   1  14
ATOM     14  O   UNL     1      21.626   3.724  49.385  1.00  0.00    -0.453 OA
BRANCH  14  15
ATOM     15  C   UNL     1      21.437   3.855  50.722  1.00  0.00     0.338 C 
ATOM     16  O   UNL     1      20.568   4.533  51.247  1.00  0.00    -0.246 OA
BRANCH  15  17
ATOM     17  C   UNL     1      22.444   3.066  51.477  1.00  0.00     0.060 A 
ATOM     18  C   UNL     1      22.546   1.676  51.371  1.00  0.00     0.018 A 
ATOM     19  C   UNL     1      23.316   3.747  52.332  1.00  0.00     0.018 A 
ATOM     20  C   UNL     1      23.515   0.985  52.110  1.00  0.00     0.027 A 
ATOM     21  C   UNL     1      24.282   3.048  53.068  1.00  0.00     0.027 A 
ATOM     22  C   UNL     1      24.399   1.656  52.968  1.00  0.00     0.038 A 
BRANCH  22  23
ATOM     23  N   UNL     1      25.341   0.899  53.683  1.00  0.00    -0.361 N 
ATOM     24  H   UNL     1      25.006  -0.002  54.034  1.00  0.00     0.166 HD
BRANCH  23  25
ATOM     25  C   UNL     1      26.652   1.183  53.977  1.00  0.00     0.099 C 
ATOM     26  C   UNL     1      27.710   0.393  53.770  1.00  0.00     0.085 C 
ATOM     27  C   UNL     1      27.699  -0.950  53.179  1.00  0.00     0.191 C 
ATOM     28  C   UNL     1      29.102   0.719  54.097  1.00  0.00     0.191 C 
ATOM     29  O   UNL     1      26.741  -1.579  52.776  1.00  0.00    -0.289 OA
ATOM     30  C   UNL     1      29.103  -1.401  53.167  1.00  0.00     0.057 C 
ATOM     31  C   UNL     1      29.899  -0.455  53.687  1.00  0.00     0.057 C 
ATOM     32  O   UNL     1      29.539   1.733  54.602  1.00  0.00    -0.289 OA
ENDBRANCH  23  25
ENDBRANCH  22  23
ENDBRANCH  15  17
ENDBRANCH  14  15
ENDBRANCH   1  14
TORSDOF 10
ENDMDL
MODEL 5
REMARK VINA RESULT:    -6.974      4.860      7.952
REMARK INTER + INTRA:         -12.844
REMARK INTER:                 -11.707
REMARK INTRA:                  -1.137
REMARK UNBOUND:                -1.793
REMARK SMILES COC[C@H](Cn1ccnc1[N+](=O)[O-])OC(=O)c1ccc(NC=C2C(=O)C=CC2=O)cc1
REMARK SMILES IDX 4 1 3 2 2 3 1 4 5 5 6 6 7 7 10 8 8 9 9 10 11 11 12 12 13 13
REMARK SMILES IDX 14 14 15 15 16 16 17 17 18 18 31 19 19 20 30 21 20 22 21 23
REMARK SMILES IDX 22 25 23 26 24 27 28 28 25 29 26 30 27 31 29 32
REMARK H PARENT 21 24
ROOT
ATOM      1  C   UNL     1      24.067   0.981  52.685  1.00  0.00     0.237 C 
ENDROOT
BRANCH   1   2
ATOM      2  C   UNL     1      22.715   0.710  53.367  1.00  0.00     0.208 C 
BRANCH   2   3
ATOM      3  O   UNL     1      22.840  -0.413  54.243  1.00  0.00    -0.381 OA
ATOM      4  C   UNL     1      21.979  -1.480  53.860  1.00  0.00     0.195 C 
ENDBRANCH   2   3
ENDBRANCH   1   2
BRANCH   1   5
ATOM      5  C   UNL     1      25.252   0.906  53.660  1.00  0.00     0.253 C 
BRANCH   5   6
ATOM      6  N   UNL     1      26.262  -0.060  53.283  1.00  0.00    -0.226 N 
ATOM      7  C   UNL     1      25.982  -1.304  52.766  1.00  0.00     0.204 A 
ATOM      8  C   UNL     1      27.624   0.011  53.406  1.00  0.00     0.434 A 
ATOM      9  C   UNL     1      27.199  -1.937  52.649  1.00  0.00     0.245 A 
ATOM     10  N   UNL     1      28.216  -1.117  53.060  1.00  0.00    -0.074 NA
BRANCH   8  11
ATOM     11  N   UNL     1      28.346   1.170  53.844  1.00  0.00    -0.047 N 
ATOM     12  O   UNL     1      28.952   1.077  54.920  1.00  0.00    -0.390 OA
ATOM     13  O   UNL     1      28.293   2.174  53.121  1.00  0.00    -0.390 OA
ENDBRANCH   8  11
ENDBRANCH   5   6
ENDBRANCH   1   5
BRANCH   1  14
ATOM     14  O   UNL     1      24.081   2.319  52.130  1.00  0.00    -0.453 OA
BRANCH  14  15
ATOM     15  C   UNL     1      23.850   2.408  50.796  1.00  0.00     0.338 C 
ATOM     16  O   UNL     1      22.967   1.818  50.193  1.00  0.00    -0.246 OA
BRANCH  15  17
ATOM     17  C   UNL     1      24.828   3.321  50.150  1.00  0.00     0.060 A 
ATOM     18  C   UNL     1      26.159   2.960  49.921  1.00  0.00     0.018 A 
ATOM     19  C   UNL     1      24.395   4.593  49.764  1.00  0.00     0.018 A 
ATOM     20  C   UNL     1      27.037   3.863  49.309  1.00  0.00     0.027 A 
ATOM     21  C   UNL     1      25.280   5.491  49.153  1.00  0.00     0.027 A 
ATOM     22  C   UNL     1      26.614   5.142  48.913  1.00  0.00     0.038 A 
BRANCH  22  23
ATOM     23  N   UNL     1      27.549   5.999  48.311  1.00  0.00    -0.361 N 
ATOM     24  H   UNL     1      27.168   6.871  47.935  1.00  0.00     0.166 HD
BRANCH  23  25
ATOM     25  C   UNL     1      28.904   5.846  48.155  1.00  0.00     0.099 C 
ATOM     26  C   UNL     1      29.846   6.768  48.378  1.00  0.00     0.085 C 
ATOM     27  C   UNL     1      29.634   8.144  48.841  1.00  0.00     0.191 C 
ATOM     28  C   UNL     1      31.290   6.580  48.200  1.00  0.00     0.191 C 
ATOM     29  O   UNL     1      28.580   8.688  49.103  1.00  0.00    -0.289 OA
ATOM     30  C   UNL     1      30.974   8.754  48.931  1.00  0.00     0.057 C 
ATOM     31  C   UNL     1      31.913   7.868  48.567  1.00  0.00     0.057 C 
ATOM     32  O   UNL     1      31.879   5.586  47.828  1.00  0.00    -0.289 OA
ENDBRANCH  23  25
ENDBRANCH  22  23
ENDBRANCH  15  17
ENDBRANCH  14  15
ENDBRANCH   1  14
TORSDOF 10
ENDMDL
MODEL 6
REMARK VINA RESULT:    -6.955      1.812      2.254
REMARK INTER + INTRA:         -12.814
REMARK INTER:                 -11.365
REMARK INTRA:                  -1.449
REMARK UNBOUND:                -1.793
REMARK SMILES COC[C@H](Cn1ccnc1[N+](=O)[O-])OC(=O)c1ccc(NC=C2C(=O)C=CC2=O)cc1
REMARK SMILES IDX 4 1 3 2 2 3 1 4 5 5 6 6 7 7 10 8 8 9 9 10 11 11 12 12 13 13
REMARK SMILES IDX 14 14 15 15 16 16 17 17 18 18 31 19 19 20 30 21 20 22 21 23
REMARK SMILES IDX 22 25 23 26 24 27 28 28 25 29 26 30 27 31 29 32
REMARK H PARENT 21 24
ROOT
ATOM      1  C   UNL     1      19.843   2.817  51.271  1.00  0.00     0.237 C 
ENDROOT
BRANCH   1   2
ATOM      2  C   UNL     1      18.396   2.654  50.774  1.00  0.00     0.208 C 
BRANCH   2   3
ATOM      3  O   UNL     1      18.406   2.182  49.424  1.00  0.00    -0.381 OA
ATOM      4  C   UNL     1      17.299   2.682  48.682  1.00  0.00     0.195 C 
ENDBRANCH   2   3
ENDBRANCH   1   2
BRANCH   1   5
ATOM      5  C   UNL     1      20.541   4.050  50.679  1.00  0.00     0.253 C 
BRANCH   5   6
ATOM      6  N   UNL     1      21.875   4.274  51.195  1.00  0.00    -0.226 N 
ATOM      7  C   UNL     1      22.154   4.545  52.515  1.00  0.00     0.204 A 
ATOM      8  C   UNL     1      23.069   4.328  50.527  1.00  0.00     0.434 A 
ATOM      9  C   UNL     1      23.507   4.795  52.562  1.00  0.00     0.245 A 
ATOM     10  N   UNL     1      24.069   4.670  51.319  1.00  0.00    -0.074 NA
BRANCH   8  11
ATOM     11  N   UNL     1      23.241   4.036  49.134  1.00  0.00    -0.047 N 
ATOM     12  O   UNL     1      23.122   2.850  48.793  1.00  0.00    -0.390 OA
ATOM     13  O   UNL     1      23.508   4.986  48.387  1.00  0.00    -0.390 OA
ENDBRANCH   8  11
ENDBRANCH   5   6
ENDBRANCH   1   5
BRANCH   1  14
ATOM     14  O   UNL     1      20.635   1.671  50.872  1.00  0.00    -0.453 OA
BRANCH  14  15
ATOM     15  C   UNL     1      20.505   0.565  51.646  1.00  0.00     0.338 C 
ATOM     16  O   UNL     1      19.490  -0.104  51.755  1.00  0.00    -0.246 OA
BRANCH  15  17
ATOM     17  C   UNL     1      21.773   0.271  52.363  1.00  0.00     0.060 A 
ATOM     18  C   UNL     1      21.847  -0.639  53.422  1.00  0.00     0.018 A 
ATOM     19  C   UNL     1      22.933   0.941  51.962  1.00  0.00     0.018 A 
ATOM     20  C   UNL     1      23.071  -0.874  54.061  1.00  0.00     0.027 A 
ATOM     21  C   UNL     1      24.153   0.701  52.609  1.00  0.00     0.027 A 
ATOM     22  C   UNL     1      24.244  -0.211  53.667  1.00  0.00     0.038 A 
BRANCH  22  23
ATOM     23  N   UNL     1      25.434  -0.491  54.357  1.00  0.00    -0.361 N 
ATOM     24  H   UNL     1      25.450  -1.380  54.864  1.00  0.00     0.166 HD
BRANCH  23  25
ATOM     25  C   UNL     1      26.587   0.249  54.449  1.00  0.00     0.099 C 
ATOM     26  C   UNL     1      27.803  -0.106  54.023  1.00  0.00     0.085 C 
ATOM     27  C   UNL     1      28.168  -1.364  53.360  1.00  0.00     0.191 C 
ATOM     28  C   UNL     1      29.022   0.702  54.136  1.00  0.00     0.191 C 
ATOM     29  O   UNL     1      27.442  -2.297  53.082  1.00  0.00    -0.289 OA
ATOM     30  C   UNL     1      29.615  -1.277  53.090  1.00  0.00     0.057 C 
ATOM     31  C   UNL     1      30.100  -0.106  53.530  1.00  0.00     0.057 C 
ATOM     32  O   UNL     1      29.150   1.805  54.624  1.00  0.00    -0.289 OA
ENDBRANCH  23  25
ENDBRANCH  22  23
ENDBRANCH  15  17
ENDBRANCH  14  15
ENDBRANCH   1  14
TORSDOF 10
ENDMDL
MODEL 7
REMARK VINA RESULT:    -6.942      1.773      2.538
REMARK INTER + INTRA:         -12.793
REMARK INTER:                 -10.772
REMARK INTRA:                  -2.020
REMARK UNBOUND:                -1.793
REMARK SMILES COC[C@H](Cn1ccnc1[N+](=O)[O-])OC(=O)c1ccc(NC=C2C(=O)C=CC2=O)cc1
REMARK SMILES IDX 4 1 3 2 2 3 1 4 5 5 6 6 7 7 10 8 8 9 9 10 11 11 12 12 13 13
REMARK SMILES IDX 14 14 15 15 16 16 17 17 18 18 31 19 19 20 30 21 20 22 21 23
REMARK SMILES IDX 22 25 23 26 24 27 28 28 25 29 26 30 27 31 29 32
REMARK H PARENT 21 24
ROOT
ATOM      1  C   UNL     1      21.590   4.953  48.433  1.00  0.00     0.237 C 
ENDROOT
BRANCH   1   2
ATOM      2  C   UNL     1      21.073   5.442  47.068  1.00  0.00     0.208 C 
BRANCH   2   3
ATOM      3  O   UNL     1      19.914   4.691  46.701  1.00  0.00    -0.381 OA
ATOM      4  C   UNL     1      19.362   3.996  47.813  1.00  0.00     0.195 C 
ENDBRANCH   2   3
ENDBRANCH   1   2
BRANCH   1   5
ATOM      5  C   UNL     1      21.789   6.096  49.439  1.00  0.00     0.253 C 
BRANCH   5   6
ATOM      6  N   UNL     1      22.339   5.671  50.709  1.00  0.00    -0.226 N 
ATOM      7  C   UNL     1      21.688   4.838  51.590  1.00  0.00     0.204 A 
ATOM      8  C   UNL     1      23.518   6.026  51.309  1.00  0.00     0.434 A 
ATOM      9  C   UNL     1      22.497   4.774  52.702  1.00  0.00     0.245 A 
ATOM     10  N   UNL     1      23.629   5.525  52.525  1.00  0.00    -0.074 NA
BRANCH   8  11
ATOM     11  N   UNL     1      24.534   6.833  50.701  1.00  0.00    -0.047 N 
ATOM     12  O   UNL     1      24.362   8.061  50.725  1.00  0.00    -0.390 OA
ATOM     13  O   UNL     1      25.493   6.243  50.187  1.00  0.00    -0.390 OA
ENDBRANCH   8  11
ENDBRANCH   5   6
ENDBRANCH   1   5
BRANCH   1  14
ATOM     14  O   UNL     1      22.885   4.322  48.273  1.00  0.00    -0.453 OA
BRANCH  14  15
ATOM     15  C   UNL     1      22.900   2.970  48.380  1.00  0.00     0.338 C 
ATOM     16  O   UNL     1      22.444   2.193  47.556  1.00  0.00    -0.246 OA
BRANCH  15  17
ATOM     17  C   UNL     1      23.544   2.548  49.651  1.00  0.00     0.060 A 
ATOM     18  C   UNL     1      24.834   2.947  50.011  1.00  0.00     0.018 A 
ATOM     19  C   UNL     1      22.826   1.712  50.512  1.00  0.00     0.018 A 
ATOM     20  C   UNL     1      25.390   2.515  51.222  1.00  0.00     0.027 A 
ATOM     21  C   UNL     1      23.390   1.284  51.722  1.00  0.00     0.027 A 
ATOM     22  C   UNL     1      24.679   1.680  52.098  1.00  0.00     0.038 A 
BRANCH  22  23
ATOM     23  N   UNL     1      25.301   1.281  53.293  1.00  0.00    -0.361 N 
ATOM     24  H   UNL     1      24.704   0.772  53.950  1.00  0.00     0.166 HD
BRANCH  23  25
ATOM     25  C   UNL     1      26.595   1.464  53.710  1.00  0.00     0.099 C 
ATOM     26  C   UNL     1      27.593   0.576  53.645  1.00  0.00     0.085 C 
ATOM     27  C   UNL     1      27.519  -0.788  53.109  1.00  0.00     0.191 C 
ATOM     28  C   UNL     1      28.969   0.796  54.102  1.00  0.00     0.191 C 
ATOM     29  O   UNL     1      26.553  -1.350  52.633  1.00  0.00    -0.289 OA
ATOM     30  C   UNL     1      28.870  -1.358  53.260  1.00  0.00     0.057 C 
ATOM     31  C   UNL     1      29.693  -0.460  53.823  1.00  0.00     0.057 C 
ATOM     32  O   UNL     1      29.443   1.791  54.610  1.00  0.00    -0.289 OA
ENDBRANCH  23  25
ENDBRANCH  22  23
ENDBRANCH  15  17
ENDBRANCH  14  15
ENDBRANCH   1  14
TORSDOF 10
ENDMDL
MODEL 8
REMARK VINA RESULT:    -6.908      5.325      7.045
REMARK INTER + INTRA:         -12.739
REMARK INTER:                 -11.416
REMARK INTRA:                  -1.323
REMARK UNBOUND:                -1.793
REMARK SMILES COC[C@H](Cn1ccnc1[N+](=O)[O-])OC(=O)c1ccc(NC=C2C(=O)C=CC2=O)cc1
REMARK SMILES IDX 4 1 3 2 2 3 1 4 5 5 6 6 7 7 10 8 8 9 9 10 11 11 12 12 13 13
REMARK SMILES IDX 14 14 15 15 16 16 17 17 18 18 31 19 19 20 30 21 20 22 21 23
REMARK SMILES IDX 22 25 23 26 24 27 28 28 25 29 26 30 27 31 29 32
REMARK H PARENT 21 24
ROOT
ATOM      1  C   UNL     1      27.128   7.421  49.124  1.00  0.00     0.237 C 
ENDROOT
BRANCH   1   2
ATOM      2  C   UNL     1      26.058   8.222  49.888  1.00  0.00     0.208 C 
BRANCH   2   3
ATOM      3  O   UNL     1      25.358   7.351  50.779  1.00  0.00    -0.381 OA
ATOM      4  C   UNL     1      23.951   7.560  50.724  1.00  0.00     0.195 C 
ENDBRANCH   2   3
ENDBRANCH   1   2
BRANCH   1   5
ATOM      5  C   UNL     1      27.793   8.233  48.003  1.00  0.00     0.253 C 
BRANCH   5   6
ATOM      6  N   UNL     1      28.979   8.950  48.422  1.00  0.00    -0.226 N 
ATOM      7  C   UNL     1      28.979  10.264  48.833  1.00  0.00     0.204 A 
ATOM      8  C   UNL     1      30.285   8.538  48.442  1.00  0.00     0.434 A 
ATOM      9  C   UNL     1      30.302  10.586  49.035  1.00  0.00     0.245 A 
ATOM     10  N   UNL     1      31.111   9.511  48.779  1.00  0.00    -0.074 NA
BRANCH   8  11
ATOM     11  N   UNL     1      30.725   7.206  48.149  1.00  0.00    -0.047 N 
ATOM     12  O   UNL     1      30.974   6.474  49.118  1.00  0.00    -0.390 OA
ATOM     13  O   UNL     1      30.837   6.897  46.956  1.00  0.00    -0.390 OA
ENDBRANCH   8  11
ENDBRANCH   5   6
ENDBRANCH   1   5
BRANCH   1  14
ATOM     14  O   UNL     1      26.522   6.269  48.488  1.00  0.00    -0.453 OA
BRANCH  14  15
ATOM     15  C   UNL     1      27.132   5.079  48.716  1.00  0.00     0.338 C 
ATOM     16  O   UNL     1      28.258   4.783  48.352  1.00  0.00    -0.246 OA
BRANCH  15  17
ATOM     17  C   UNL     1      26.236   4.163  49.470  1.00  0.00     0.060 A 
ATOM     18  C   UNL     1      24.849   4.152  49.295  1.00  0.00     0.018 A 
ATOM     19  C   UNL     1      26.811   3.286  50.395  1.00  0.00     0.018 A 
ATOM     20  C   UNL     1      24.056   3.267  50.036  1.00  0.00     0.027 A 
ATOM     21  C   UNL     1      26.009   2.404  51.132  1.00  0.00     0.027 A 
ATOM     22  C   UNL     1      24.620   2.378  50.964  1.00  0.00     0.038 A 
BRANCH  22  23
ATOM     23  N   UNL     1      23.763   1.523  51.676  1.00  0.00    -0.361 N 
ATOM     24  H   UNL     1      22.794   1.499  51.349  1.00  0.00     0.166 HD
BRANCH  23  25
ATOM     25  C   UNL     1      24.033   0.705  52.746  1.00  0.00     0.099 C 
ATOM     26  C   UNL     1      23.162  -0.063  53.407  1.00  0.00     0.085 C 
ATOM     27  C   UNL     1      21.727  -0.200  53.131  1.00  0.00     0.191 C 
ATOM     28  C   UNL     1      23.474  -0.927  54.551  1.00  0.00     0.191 C 
ATOM     29  O   UNL     1      21.079   0.350  52.263  1.00  0.00    -0.289 OA
ATOM     30  C   UNL     1      21.209  -1.156  54.128  1.00  0.00     0.057 C 
ATOM     31  C   UNL     1      22.200  -1.568  54.934  1.00  0.00     0.057 C 
ATOM     32  O   UNL     1      24.547  -1.099  55.092  1.00  0.00    -0.289 OA
ENDBRANCH  23  25
ENDBRANCH  22  23
ENDBRANCH  15  17
ENDBRANCH  14  15
ENDBRANCH   1  14
TORSDOF 10
ENDMDL
MODEL 9
REMARK VINA RESULT:    -6.760      2.412      3.983
REMARK INTER + INTRA:         -12.504
REMARK INTER:                 -10.724
REMARK INTRA:                  -1.780
REMARK UNBOUND:                -1.793
REMARK SMILES COC[C@H](Cn1ccnc1[N+](=O)[O-])OC(=O)c1ccc(NC=C2C(=O)C=CC2=O)cc1
REMARK SMILES IDX 4 1 3 2 2 3 1 4 5 5 6 6 7 7 10 8 8 9 9 10 11 11 12 12 13 13
REMARK SMILES IDX 14 14 15 15 16 16 17 17 18 18 31 19 19 20 30 21 20 22 21 23
REMARK SMILES IDX 22 25 23 26 24 27 28 28 25 29 26 30 27 31 29 32
REMARK H PARENT 21 24
ROOT
ATOM      1  C   UNL     1      20.239   3.848  50.356  1.00  0.00     0.237 C 
ENDROOT
BRANCH   1   2
ATOM      2  C   UNL     1      19.240   4.199  49.238  1.00  0.00     0.208 C 
BRANCH   2   3
ATOM      3  O   UNL     1      19.458   3.338  48.117  1.00  0.00    -0.381 OA
ATOM      4  C   UNL     1      20.442   2.349  48.395  1.00  0.00     0.195 C 
ENDBRANCH   2   3
ENDBRANCH   1   2
BRANCH   1   5
ATOM      5  C   UNL     1      19.550   3.509  51.686  1.00  0.00     0.253 C 
BRANCH   5   6
ATOM      6  N   UNL     1      19.702   2.127  52.090  1.00  0.00    -0.226 N 
ATOM      7  C   UNL     1      20.747   1.660  52.855  1.00  0.00     0.204 A 
ATOM      8  C   UNL     1      18.936   1.037  51.774  1.00  0.00     0.434 A 
ATOM      9  C   UNL     1      20.575   0.296  52.919  1.00  0.00     0.245 A 
ATOM     10  N   UNL     1      19.452  -0.087  52.234  1.00  0.00    -0.074 NA
BRANCH   8  11
ATOM     11  N   UNL     1      17.704   1.089  51.042  1.00  0.00    -0.047 N 
ATOM     12  O   UNL     1      16.711   1.517  51.648  1.00  0.00    -0.390 OA
ATOM     13  O   UNL     1      17.726   0.690  49.871  1.00  0.00    -0.390 OA
ENDBRANCH   8  11
ENDBRANCH   5   6
ENDBRANCH   1   5
BRANCH   1  14
ATOM     14  O   UNL     1      21.102   4.981  50.621  1.00  0.00    -0.453 OA
BRANCH  14  15
ATOM     15  C   UNL     1      22.377   4.870  50.175  1.00  0.00     0.338 C 
ATOM     16  O   UNL     1      22.823   5.409  49.174  1.00  0.00    -0.246 OA
BRANCH  15  17
ATOM     17  C   UNL     1      23.174   3.986  51.066  1.00  0.00     0.060 A 
ATOM     18  C   UNL     1      23.488   4.331  52.384  1.00  0.00     0.018 A 
ATOM     19  C   UNL     1      23.629   2.766  50.556  1.00  0.00     0.018 A 
ATOM     20  C   UNL     1      24.244   3.458  53.176  1.00  0.00     0.027 A 
ATOM     21  C   UNL     1      24.386   1.899  51.356  1.00  0.00     0.027 A 
ATOM     22  C   UNL     1      24.704   2.229  52.679  1.00  0.00     0.038 A 
BRANCH  22  23
ATOM     23  N   UNL     1      25.462   1.406  53.527  1.00  0.00    -0.361 N 
ATOM     24  H   UNL     1      24.966   0.600  53.917  1.00  0.00     0.166 HD
BRANCH  23  25
ATOM     25  C   UNL     1      26.776   1.516  53.910  1.00  0.00     0.099 C 
ATOM     26  C   UNL     1      27.735   0.597  53.757  1.00  0.00     0.085 C 
ATOM     27  C   UNL     1      27.590  -0.729  53.144  1.00  0.00     0.191 C 
ATOM     28  C   UNL     1      29.133   0.737  54.178  1.00  0.00     0.191 C 
ATOM     29  O   UNL     1      26.588  -1.225  52.670  1.00  0.00    -0.289 OA
ATOM     30  C   UNL     1      28.923  -1.357  53.214  1.00  0.00     0.057 C 
ATOM     31  C   UNL     1      29.798  -0.526  53.800  1.00  0.00     0.057 C 
ATOM     32  O   UNL     1      29.662   1.682  54.726  1.00  0.00    -0.289 OA
ENDBRANCH  23  25
ENDBRANCH  22  23
ENDBRANCH  15  17
ENDBRANCH  14  15
ENDBRANCH   1  14
TORSDOF 10
ENDMDL
