MODEL 1
REMARK VINA RESULT:    -9.220      0.000      0.000
REMARK INTER + INTRA:         -12.732
REMARK INTER:                 -11.376
REMARK INTRA:                  -1.356
REMARK UNBOUND:                -1.356
REMARK SMILES Cc1[nH]c(/C=C2\C(=O)Nc3ccc(F)cc32)c(C)c1C(=O)NCC1CCN(C)CC1
REMARK SMILES IDX 20 1 21 2 22 3 19 5 2 6 3 7 4 8 17 9 1 10 18 12 5 13 6 14
REMARK SMILES IDX 7 15 16 16 8 17 9 18 15 19 10 20 13 21 11 22 12 23 14 25
REMARK SMILES IDX 23 26 24 27 25 28 30 29 26 30 29 31 27 32 28 33
REMARK H PARENT 22 4 3 11 9 24
ROOT
ATOM      1  C   UNL     1      20.218   1.535  51.443  1.00  0.00     0.253 C 
ATOM      2  O   UNL     1      19.560   1.048  50.531  1.00  0.00    -0.269 OA
ATOM      3  N   UNL     1      19.982   2.798  51.945  1.00  0.00    -0.352 N 
ATOM      4  H   UNL     1      20.423   3.034  52.823  1.00  0.00     0.163 HD
ENDROOT
BRANCH   1   5
ATOM      5  C   UNL     1      21.277   0.793  52.137  1.00  0.00     0.063 A 
ATOM      6  C   UNL     1      21.136  -0.093  53.198  1.00  0.00     0.025 A 
ATOM      7  N   UNL     1      22.388  -0.556  53.524  1.00  0.00    -0.358 N 
ATOM      8  C   UNL     1      23.352   0.033  52.749  1.00  0.00     0.043 A 
ATOM      9  C   UNL     1      22.690   0.881  51.865  1.00  0.00    -0.013 A 
ATOM     10  C   UNL     1      19.954  -0.539  53.981  1.00  0.00     0.065 C 
ATOM     11  H   UNL     1      22.565  -1.226  54.267  1.00  0.00     0.166 HD
ATOM     12  C   UNL     1      23.303   1.745  50.813  1.00  0.00     0.047 C 
BRANCH   8  13
ATOM     13  C   UNL     1      24.740  -0.239  52.920  1.00  0.00     0.041 C 
ATOM     14  C   UNL     1      25.740   0.585  53.278  1.00  0.00     0.051 C 
ATOM     15  C   UNL     1      25.744   2.059  53.613  1.00  0.00     0.256 C 
ATOM     16  C   UNL     1      27.140   0.133  53.418  1.00  0.00     0.014 A 
ATOM     17  O   UNL     1      24.807   2.835  53.616  1.00  0.00    -0.269 OA
ATOM     18  N   UNL     1      27.058   2.367  53.919  1.00  0.00    -0.321 N 
ATOM     19  C   UNL     1      27.769  -1.088  53.247  1.00  0.00     0.050 A 
ATOM     20  C   UNL     1      27.881   1.254  53.809  1.00  0.00     0.049 A 
ATOM     21  C   UNL     1      29.143  -1.147  53.476  1.00  0.00     0.123 A 
ATOM     22  C   UNL     1      29.243   1.211  54.038  1.00  0.00     0.030 A 
ATOM     23  C   UNL     1      29.880  -0.019  53.866  1.00  0.00     0.041 A 
ATOM     24  H   UNL     1      27.352   3.295  54.181  1.00  0.00     0.170 HD
ATOM     25  F   UNL     1      29.780  -2.315  53.318  1.00  0.00    -0.207 F 
ENDBRANCH   8  13
ENDBRANCH   1   5
BRANCH   3  26
ATOM     26  C   UNL     1      18.884   3.614  51.476  1.00  0.00     0.119 C 
BRANCH  26  27
ATOM     27  C   UNL     1      19.346   4.753  50.552  1.00  0.00     0.011 C 
ATOM     28  C   UNL     1      20.814   5.131  50.829  1.00  0.00     0.021 C 
ATOM     29  C   UNL     1      19.135   4.382  49.071  1.00  0.00     0.021 C 
ATOM     30  C   UNL     1      21.466   5.767  49.604  1.00  0.00     0.084 C 
ATOM     31  C   UNL     1      20.423   3.866  48.433  1.00  0.00     0.084 C 
ATOM     32  N   UNL     1      21.480   4.886  48.430  1.00  0.00    -0.306 NA
ATOM     33  C   UNL     1      22.789   4.275  48.213  1.00  0.00     0.105 C 
ENDBRANCH  26  27
ENDBRANCH   3  26
TORSDOF 4
ENDMDL
MODEL 2
REMARK VINA RESULT:    -9.057      5.056      7.713
REMARK INTER + INTRA:         -12.531
REMARK INTER:                 -11.405
REMARK INTRA:                  -1.125
REMARK UNBOUND:                -1.356
REMARK SMILES Cc1[nH]c(/C=C2\C(=O)Nc3ccc(F)cc32)c(C)c1C(=O)NCC1CCN(C)CC1
REMARK SMILES IDX 20 1 21 2 22 3 19 5 2 6 3 7 4 8 17 9 1 10 18 12 5 13 6 14
REMARK SMILES IDX 7 15 16 16 8 17 9 18 15 19 10 20 13 21 11 22 12 23 14 25
REMARK SMILES IDX 23 26 24 27 25 28 30 29 26 30 29 31 27 32 28 33
REMARK H PARENT 22 4 3 11 9 24
ROOT
ATOM      1  C   UNL     1      26.125   6.567  48.817  1.00  0.00     0.253 C 
ATOM      2  O   UNL     1      25.596   6.901  47.763  1.00  0.00    -0.269 OA
ATOM      3  N   UNL     1      27.431   6.877  49.131  1.00  0.00    -0.352 N 
ATOM      4  H   UNL     1      27.717   6.750  50.091  1.00  0.00     0.163 HD
ENDROOT
BRANCH   1   5
ATOM      5  C   UNL     1      25.396   5.862  49.878  1.00  0.00     0.063 A 
ATOM      6  C   UNL     1      24.453   6.389  50.753  1.00  0.00     0.025 A 
ATOM      7  N   UNL     1      24.029   5.371  51.572  1.00  0.00    -0.358 N 
ATOM      8  C   UNL     1      24.696   4.205  51.301  1.00  0.00     0.043 A 
ATOM      9  C   UNL     1      25.557   4.476  50.242  1.00  0.00    -0.013 A 
ATOM     10  C   UNL     1      23.918   7.764  50.941  1.00  0.00     0.065 C 
ATOM     11  H   UNL     1      23.331   5.488  52.301  1.00  0.00     0.166 HD
ATOM     12  C   UNL     1      26.498   3.526  49.577  1.00  0.00     0.047 C 
BRANCH   8  13
ATOM     13  C   UNL     1      24.476   3.010  52.044  1.00  0.00     0.041 C 
ATOM     14  C   UNL     1      23.326   2.380  52.338  1.00  0.00     0.051 C 
ATOM     15  C   UNL     1      21.892   2.714  51.995  1.00  0.00     0.256 C 
ATOM     16  C   UNL     1      23.275   1.129  53.123  1.00  0.00     0.014 A 
ATOM     17  O   UNL     1      21.467   3.666  51.367  1.00  0.00    -0.269 OA
ATOM     18  N   UNL     1      21.131   1.702  52.554  1.00  0.00    -0.321 N 
ATOM     19  C   UNL     1      24.241   0.336  53.716  1.00  0.00     0.050 A 
ATOM     20  C   UNL     1      21.924   0.773  53.214  1.00  0.00     0.049 A 
ATOM     21  C   UNL     1      23.816  -0.806  54.394  1.00  0.00     0.123 A 
ATOM     22  C   UNL     1      21.488  -0.354  53.883  1.00  0.00     0.030 A 
ATOM     23  C   UNL     1      22.461  -1.156  54.482  1.00  0.00     0.041 A 
ATOM     24  H   UNL     1      20.125   1.673  52.478  1.00  0.00     0.170 HD
ATOM     25  F   UNL     1      24.729  -1.594  54.979  1.00  0.00    -0.207 F 
ENDBRANCH   8  13
ENDBRANCH   1   5
BRANCH   3  26
ATOM     26  C   UNL     1      28.253   7.690  48.262  1.00  0.00     0.119 C 
BRANCH  26  27
ATOM     27  C   UNL     1      29.244   6.855  47.433  1.00  0.00     0.011 C 
ATOM     28  C   UNL     1      30.430   7.714  46.956  1.00  0.00     0.021 C 
ATOM     29  C   UNL     1      29.728   5.626  48.227  1.00  0.00     0.021 C 
ATOM     30  C   UNL     1      31.667   6.858  46.693  1.00  0.00     0.084 C 
ATOM     31  C   UNL     1      31.087   5.879  48.878  1.00  0.00     0.084 C 
ATOM     32  N   UNL     1      32.135   6.131  47.879  1.00  0.00    -0.306 NA
ATOM     33  C   UNL     1      33.296   6.766  48.495  1.00  0.00     0.105 C 
ENDBRANCH  26  27
ENDBRANCH   3  26
TORSDOF 4
ENDMDL
MODEL 3
REMARK VINA RESULT:    -8.986      2.065      3.400
REMARK INTER + INTRA:         -12.443
REMARK INTER:                 -11.287
REMARK INTRA:                  -1.156
REMARK UNBOUND:                -1.356
REMARK SMILES Cc1[nH]c(/C=C2\C(=O)Nc3ccc(F)cc32)c(C)c1C(=O)NCC1CCN(C)CC1
REMARK SMILES IDX 20 1 21 2 22 3 19 5 2 6 3 7 4 8 17 9 1 10 18 12 5 13 6 14
REMARK SMILES IDX 7 15 16 16 8 17 9 18 15 19 10 20 13 21 11 22 12 23 14 25
REMARK SMILES IDX 23 26 24 27 25 28 30 29 26 30 29 31 27 32 28 33
REMARK H PARENT 22 4 3 11 9 24
ROOT
ATOM      1  C   UNL     1      20.141   1.986  51.400  1.00  0.00     0.253 C 
ATOM      2  O   UNL     1      19.821   3.099  51.803  1.00  0.00    -0.269 OA
ATOM      3  N   UNL     1      19.612   1.423  50.258  1.00  0.00    -0.352 N 
ATOM      4  H   UNL     1      20.078   0.608  49.887  1.00  0.00     0.163 HD
ENDROOT
BRANCH   1   5
ATOM      5  C   UNL     1      21.171   1.174  52.057  1.00  0.00     0.063 A 
ATOM      6  C   UNL     1      20.996   0.244  53.075  1.00  0.00     0.025 A 
ATOM      7  N   UNL     1      22.229  -0.279  53.380  1.00  0.00    -0.358 N 
ATOM      8  C   UNL     1      23.216   0.309  52.633  1.00  0.00     0.043 A 
ATOM      9  C   UNL     1      22.587   1.221  51.791  1.00  0.00    -0.013 A 
ATOM     10  C   UNL     1      19.796  -0.194  53.837  1.00  0.00     0.065 C 
ATOM     11  H   UNL     1      22.380  -0.989  54.090  1.00  0.00     0.166 HD
ATOM     12  C   UNL     1      23.234   2.111  50.780  1.00  0.00     0.047 C 
BRANCH   8  13
ATOM     13  C   UNL     1      24.592  -0.022  52.792  1.00  0.00     0.041 C 
ATOM     14  C   UNL     1      25.620   0.744  53.197  1.00  0.00     0.051 C 
ATOM     15  C   UNL     1      25.675   2.197  53.613  1.00  0.00     0.256 C 
ATOM     16  C   UNL     1      27.002   0.235  53.314  1.00  0.00     0.014 A 
ATOM     17  O   UNL     1      24.767   3.005  53.658  1.00  0.00    -0.269 OA
ATOM     18  N   UNL     1      26.998   2.439  53.938  1.00  0.00    -0.321 N 
ATOM     19  C   UNL     1      27.587  -0.996  53.077  1.00  0.00     0.050 A 
ATOM     20  C   UNL     1      27.781   1.306  53.768  1.00  0.00     0.049 A 
ATOM     21  C   UNL     1      28.957  -1.117  53.304  1.00  0.00     0.123 A 
ATOM     22  C   UNL     1      29.140   1.201  53.997  1.00  0.00     0.030 A 
ATOM     23  C   UNL     1      29.732  -0.039  53.758  1.00  0.00     0.041 A 
ATOM     24  H   UNL     1      27.324   3.341  54.253  1.00  0.00     0.170 HD
ATOM     25  F   UNL     1      29.553  -2.297  53.083  1.00  0.00    -0.207 F 
ENDBRANCH   8  13
ENDBRANCH   1   5
BRANCH   3  26
ATOM     26  C   UNL     1      18.689   2.143  49.408  1.00  0.00     0.119 C 
BRANCH  26  27
ATOM     27  C   UNL     1      17.274   1.542  49.429  1.00  0.00     0.011 C 
ATOM     28  C   UNL     1      17.313   0.042  49.776  1.00  0.00     0.021 C 
ATOM     29  C   UNL     1      16.360   2.317  50.399  1.00  0.00     0.021 C 
ATOM     30  C   UNL     1      15.994  -0.422  50.391  1.00  0.00     0.084 C 
ATOM     31  C   UNL     1      16.257   1.615  51.752  1.00  0.00     0.084 C 
ATOM     32  N   UNL     1      15.652   0.282  51.634  1.00  0.00    -0.306 NA
ATOM     33  C   UNL     1      15.934  -0.523  52.819  1.00  0.00     0.105 C 
ENDBRANCH  26  27
ENDBRANCH   3  26
TORSDOF 4
ENDMDL
MODEL 4
REMARK VINA RESULT:    -8.923      5.690      8.125
REMARK INTER + INTRA:         -12.365
REMARK INTER:                 -11.158
REMARK INTRA:                  -1.207
REMARK UNBOUND:                -1.356
REMARK SMILES Cc1[nH]c(/C=C2\C(=O)Nc3ccc(F)cc32)c(C)c1C(=O)NCC1CCN(C)CC1
REMARK SMILES IDX 20 1 21 2 22 3 19 5 2 6 3 7 4 8 17 9 1 10 18 12 5 13 6 14
REMARK SMILES IDX 7 15 16 16 8 17 9 18 15 19 10 20 13 21 11 22 12 23 14 25
REMARK SMILES IDX 23 26 24 27 25 28 30 29 26 30 29 31 27 32 28 33
REMARK H PARENT 22 4 3 11 9 24
ROOT
ATOM      1  C   UNL     1      23.551   3.331  49.546  1.00  0.00     0.253 C 
ATOM      2  O   UNL     1      23.108   2.530  48.730  1.00  0.00    -0.269 OA
ATOM      3  N   UNL     1      23.464   3.137  50.908  1.00  0.00    -0.352 N 
ATOM      4  H   UNL     1      24.033   3.731  51.495  1.00  0.00     0.163 HD
ENDROOT
BRANCH   1   5
ATOM      5  C   UNL     1      24.280   4.541  49.148  1.00  0.00     0.063 A 
ATOM      6  C   UNL     1      23.749   5.727  48.656  1.00  0.00     0.025 A 
ATOM      7  N   UNL     1      24.795   6.587  48.422  1.00  0.00    -0.358 N 
ATOM      8  C   UNL     1      25.998   5.991  48.696  1.00  0.00     0.043 A 
ATOM      9  C   UNL     1      25.712   4.710  49.157  1.00  0.00    -0.013 A 
ATOM     10  C   UNL     1      22.359   6.147  48.337  1.00  0.00     0.065 C 
ATOM     11  H   UNL     1      24.679   7.531  48.065  1.00  0.00     0.166 HD
ATOM     12  C   UNL     1      26.690   3.666  49.590  1.00  0.00     0.047 C 
BRANCH   8  13
ATOM     13  C   UNL     1      27.242   6.655  48.490  1.00  0.00     0.041 C 
ATOM     14  C   UNL     1      27.678   7.832  48.970  1.00  0.00     0.051 C 
ATOM     15  C   UNL     1      27.014   8.845  49.874  1.00  0.00     0.256 C 
ATOM     16  C   UNL     1      29.016   8.377  48.661  1.00  0.00     0.014 A 
ATOM     17  O   UNL     1      25.901   8.808  50.362  1.00  0.00    -0.269 OA
ATOM     18  N   UNL     1      27.943   9.859  50.040  1.00  0.00    -0.321 N 
ATOM     19  C   UNL     1      30.076   7.925  47.895  1.00  0.00     0.050 A 
ATOM     20  C   UNL     1      29.112   9.599  49.338  1.00  0.00     0.049 A 
ATOM     21  C   UNL     1      31.217   8.724  47.830  1.00  0.00     0.123 A 
ATOM     22  C   UNL     1      30.236  10.401  49.283  1.00  0.00     0.030 A 
ATOM     23  C   UNL     1      31.306   9.947  48.511  1.00  0.00     0.041 A 
ATOM     24  H   UNL     1      27.761  10.675  50.603  1.00  0.00     0.170 HD
ATOM     25  F   UNL     1      32.260   8.312  47.096  1.00  0.00    -0.207 F 
ENDBRANCH   8  13
ENDBRANCH   1   5
BRANCH   3  26
ATOM     26  C   UNL     1      22.904   1.930  51.474  1.00  0.00     0.119 C 
BRANCH  26  27
ATOM     27  C   UNL     1      23.582   1.526  52.794  1.00  0.00     0.011 C 
ATOM     28  C   UNL     1      23.532  -0.000  52.999  1.00  0.00     0.021 C 
ATOM     29  C   UNL     1      25.031   2.050  52.852  1.00  0.00     0.021 C 
ATOM     30  C   UNL     1      24.663  -0.477  53.906  1.00  0.00     0.084 C 
ATOM     31  C   UNL     1      26.034   0.968  52.457  1.00  0.00     0.084 C 
ATOM     32  N   UNL     1      26.000  -0.175  53.378  1.00  0.00    -0.306 NA
ATOM     33  C   UNL     1      26.634  -1.345  52.777  1.00  0.00     0.105 C 
ENDBRANCH  26  27
ENDBRANCH   3  26
TORSDOF 4
ENDMDL
MODEL 5
REMARK VINA RESULT:    -8.856      5.798      8.055
REMARK INTER + INTRA:         -12.282
REMARK INTER:                 -11.084
REMARK INTRA:                  -1.199
REMARK UNBOUND:                -1.356
REMARK SMILES Cc1[nH]c(/C=C2\C(=O)Nc3ccc(F)cc32)c(C)c1C(=O)NCC1CCN(C)CC1
REMARK SMILES IDX 20 1 21 2 22 3 19 5 2 6 3 7 4 8 17 9 1 10 18 12 5 13 6 14
REMARK SMILES IDX 7 15 16 16 8 17 9 18 15 19 10 20 13 21 11 22 12 23 14 25
REMARK SMILES IDX 23 26 24 27 25 28 30 29 26 30 29 31 27 32 28 33
REMARK H PARENT 22 4 3 11 9 24
ROOT
ATOM      1  C   UNL     1      26.672   7.569  48.941  1.00  0.00     0.253 C 
ATOM      2  O   UNL     1      25.964   8.197  48.161  1.00  0.00    -0.269 OA
ATOM      3  N   UNL     1      27.708   8.147  49.642  1.00  0.00    -0.352 N 
ATOM      4  H   UNL     1      28.098   7.617  50.409  1.00  0.00     0.163 HD
ENDROOT
BRANCH   1   5
ATOM      5  C   UNL     1      26.439   6.154  49.254  1.00  0.00     0.063 A 
ATOM      6  C   UNL     1      27.263   5.074  48.960  1.00  0.00     0.025 A 
ATOM      7  N   UNL     1      26.653   3.941  49.442  1.00  0.00    -0.358 N 
ATOM      8  C   UNL     1      25.435   4.231  49.998  1.00  0.00     0.043 A 
ATOM      9  C   UNL     1      25.271   5.610  49.901  1.00  0.00    -0.013 A 
ATOM     10  C   UNL     1      28.558   4.968  48.236  1.00  0.00     0.065 C 
ATOM     11  H   UNL     1      27.052   3.010  49.363  1.00  0.00     0.166 HD
ATOM     12  C   UNL     1      24.104   6.416  50.370  1.00  0.00     0.047 C 
BRANCH   8  13
ATOM     13  C   UNL     1      24.579   3.223  50.528  1.00  0.00     0.041 C 
ATOM     14  C   UNL     1      24.841   2.256  51.424  1.00  0.00     0.051 C 
ATOM     15  C   UNL     1      26.111   1.904  52.165  1.00  0.00     0.256 C 
ATOM     16  C   UNL     1      23.823   1.285  51.876  1.00  0.00     0.014 A 
ATOM     17  O   UNL     1      27.201   2.437  52.091  1.00  0.00    -0.269 OA
ATOM     18  N   UNL     1      25.785   0.822  52.965  1.00  0.00    -0.321 N 
ATOM     19  C   UNL     1      22.489   1.089  51.566  1.00  0.00     0.050 A 
ATOM     20  C   UNL     1      24.457   0.451  52.805  1.00  0.00     0.049 A 
ATOM     21  C   UNL     1      21.821   0.045  52.206  1.00  0.00     0.123 A 
ATOM     22  C   UNL     1      23.809  -0.586  53.447  1.00  0.00     0.030 A 
ATOM     23  C   UNL     1      22.463  -0.787  53.135  1.00  0.00     0.041 A 
ATOM     24  H   UNL     1      26.454   0.376  53.574  1.00  0.00     0.170 HD
ATOM     25  F   UNL     1      20.529  -0.170  51.926  1.00  0.00    -0.207 F 
ENDBRANCH   8  13
ENDBRANCH   1   5
BRANCH   3  26
ATOM     26  C   UNL     1      27.988   9.563  49.563  1.00  0.00     0.119 C 
BRANCH  26  27
ATOM     27  C   UNL     1      29.346   9.862  48.904  1.00  0.00     0.011 C 
ATOM     28  C   UNL     1      30.442   8.922  49.442  1.00  0.00     0.021 C 
ATOM     29  C   UNL     1      29.243   9.780  47.369  1.00  0.00     0.021 C 
ATOM     30  C   UNL     1      31.579   8.761  48.436  1.00  0.00     0.084 C 
ATOM     31  C   UNL     1      29.726   8.428  46.846  1.00  0.00     0.084 C 
ATOM     32  N   UNL     1      31.144   8.197  47.152  1.00  0.00    -0.306 NA
ATOM     33  C   UNL     1      31.478   6.781  47.029  1.00  0.00     0.105 C 
ENDBRANCH  26  27
ENDBRANCH   3  26
TORSDOF 4
ENDMDL
MODEL 6
REMARK VINA RESULT:    -8.847      5.526      7.619
REMARK INTER + INTRA:         -12.271
REMARK INTER:                 -11.386
REMARK INTRA:                  -0.885
REMARK UNBOUND:                -1.356
REMARK SMILES Cc1[nH]c(/C=C2\C(=O)Nc3ccc(F)cc32)c(C)c1C(=O)NCC1CCN(C)CC1
REMARK SMILES IDX 20 1 21 2 22 3 19 5 2 6 3 7 4 8 17 9 1 10 18 12 5 13 6 14
REMARK SMILES IDX 7 15 16 16 8 17 9 18 15 19 10 20 13 21 11 22 12 23 14 25
REMARK SMILES IDX 23 26 24 27 25 28 30 29 26 30 29 31 27 32 28 33
REMARK H PARENT 22 4 3 11 9 24
ROOT
ATOM      1  C   UNL     1      25.390   6.919  49.728  1.00  0.00     0.253 C 
ATOM      2  O   UNL     1      24.648   7.538  48.973  1.00  0.00    -0.269 OA
ATOM      3  N   UNL     1      26.480   7.495  50.345  1.00  0.00    -0.352 N 
ATOM      4  H   UNL     1      26.906   6.981  51.103  1.00  0.00     0.163 HD
ENDROOT
BRANCH   1   5
ATOM      5  C   UNL     1      25.148   5.520  50.101  1.00  0.00     0.063 A 
ATOM      6  C   UNL     1      25.928   4.413  49.791  1.00  0.00     0.025 A 
ATOM      7  N   UNL     1      25.327   3.310  50.347  1.00  0.00    -0.358 N 
ATOM      8  C   UNL     1      24.154   3.645  50.969  1.00  0.00     0.043 A 
ATOM      9  C   UNL     1      24.013   5.024  50.838  1.00  0.00    -0.013 A 
ATOM     10  C   UNL     1      27.172   4.255  48.990  1.00  0.00     0.065 C 
ATOM     11  H   UNL     1      25.700   2.368  50.273  1.00  0.00     0.166 HD
ATOM     12  C   UNL     1      22.896   5.871  51.354  1.00  0.00     0.047 C 
BRANCH   8  13
ATOM     13  C   UNL     1      23.312   2.674  51.585  1.00  0.00     0.041 C 
ATOM     14  C   UNL     1      23.631   1.645  52.388  1.00  0.00     0.051 C 
ATOM     15  C   UNL     1      24.968   1.164  52.905  1.00  0.00     0.256 C 
ATOM     16  C   UNL     1      22.622   0.726  52.954  1.00  0.00     0.014 A 
ATOM     17  O   UNL     1      26.073   1.621  52.683  1.00  0.00    -0.269 OA
ATOM     18  N   UNL     1      24.685   0.067  53.701  1.00  0.00    -0.321 N 
ATOM     19  C   UNL     1      21.245   0.643  52.849  1.00  0.00     0.050 A 
ATOM     20  C   UNL     1      23.323  -0.199  53.737  1.00  0.00     0.049 A 
ATOM     21  C   UNL     1      20.603  -0.383  53.542  1.00  0.00     0.123 A 
ATOM     22  C   UNL     1      22.701  -1.220  54.428  1.00  0.00     0.030 A 
ATOM     23  C   UNL     1      21.312  -1.307  54.324  1.00  0.00     0.041 A 
ATOM     24  H   UNL     1      25.402  -0.457  54.178  1.00  0.00     0.170 HD
ATOM     25  F   UNL     1      19.270  -0.490  53.460  1.00  0.00    -0.207 F 
ENDBRANCH   8  13
ENDBRANCH   1   5
BRANCH   3  26
ATOM     26  C   UNL     1      26.784   8.902  50.202  1.00  0.00     0.119 C 
BRANCH  26  27
ATOM     27  C   UNL     1      27.581   9.208  48.923  1.00  0.00     0.011 C 
ATOM     28  C   UNL     1      27.667  10.726  48.673  1.00  0.00     0.021 C 
ATOM     29  C   UNL     1      28.984   8.571  48.982  1.00  0.00     0.021 C 
ATOM     30  C   UNL     1      28.893  11.083  47.835  1.00  0.00     0.084 C 
ATOM     31  C   UNL     1      30.041   9.584  49.417  1.00  0.00     0.084 C 
ATOM     32  N   UNL     1      30.161  10.695  48.464  1.00  0.00    -0.306 NA
ATOM     33  C   UNL     1      30.844  11.832  49.076  1.00  0.00     0.105 C 
ENDBRANCH  26  27
ENDBRANCH   3  26
TORSDOF 4
ENDMDL
MODEL 7
REMARK VINA RESULT:    -8.747      4.227      7.573
REMARK INTER + INTRA:         -12.149
REMARK INTER:                 -11.341
REMARK INTRA:                  -0.808
REMARK UNBOUND:                -1.356
REMARK SMILES Cc1[nH]c(/C=C2\C(=O)Nc3ccc(F)cc32)c(C)c1C(=O)NCC1CCN(C)CC1
REMARK SMILES IDX 20 1 21 2 22 3 19 5 2 6 3 7 4 8 17 9 1 10 18 12 5 13 6 14
REMARK SMILES IDX 7 15 16 16 8 17 9 18 15 19 10 20 13 21 11 22 12 23 14 25
REMARK SMILES IDX 23 26 24 27 25 28 30 29 26 30 29 31 27 32 28 33
REMARK H PARENT 22 4 3 11 9 24
ROOT
ATOM      1  C   UNL     1      22.550   1.213  51.784  1.00  0.00     0.253 C 
ATOM      2  O   UNL     1      21.411   0.824  52.018  1.00  0.00    -0.269 OA
ATOM      3  N   UNL     1      23.651   0.770  52.485  1.00  0.00    -0.352 N 
ATOM      4  H   UNL     1      24.560   0.976  52.094  1.00  0.00     0.163 HD
ENDROOT
BRANCH   1   5
ATOM      5  C   UNL     1      22.859   2.138  50.687  1.00  0.00     0.063 A 
ATOM      6  C   UNL     1      22.420   2.068  49.370  1.00  0.00     0.025 A 
ATOM      7  N   UNL     1      22.950   3.141  48.696  1.00  0.00    -0.358 N 
ATOM      8  C   UNL     1      23.763   3.887  49.510  1.00  0.00     0.043 A 
ATOM      9  C   UNL     1      23.724   3.289  50.766  1.00  0.00    -0.013 A 
ATOM     10  C   UNL     1      21.579   1.079  48.645  1.00  0.00     0.065 C 
ATOM     11  H   UNL     1      22.778   3.330  47.713  1.00  0.00     0.166 HD
ATOM     12  C   UNL     1      24.442   3.730  51.999  1.00  0.00     0.047 C 
BRANCH   8  13
ATOM     13  C   UNL     1      24.473   5.028  49.040  1.00  0.00     0.041 C 
ATOM     14  C   UNL     1      25.797   5.230  48.923  1.00  0.00     0.051 C 
ATOM     15  C   UNL     1      26.972   4.334  49.246  1.00  0.00     0.256 C 
ATOM     16  C   UNL     1      26.374   6.486  48.403  1.00  0.00     0.014 A 
ATOM     17  O   UNL     1      26.960   3.209  49.708  1.00  0.00    -0.269 OA
ATOM     18  N   UNL     1      28.098   5.066  48.912  1.00  0.00    -0.321 N 
ATOM     19  C   UNL     1      25.823   7.671  47.948  1.00  0.00     0.050 A 
ATOM     20  C   UNL     1      27.764   6.321  48.420  1.00  0.00     0.049 A 
ATOM     21  C   UNL     1      26.697   8.670  47.519  1.00  0.00     0.123 A 
ATOM     22  C   UNL     1      28.642   7.301  47.999  1.00  0.00     0.030 A 
ATOM     23  C   UNL     1      28.089   8.497  47.540  1.00  0.00     0.041 A 
ATOM     24  H   UNL     1      29.034   4.706  49.027  1.00  0.00     0.170 HD
ATOM     25  F   UNL     1      26.194   9.829  47.073  1.00  0.00    -0.207 F 
ENDBRANCH   8  13
ENDBRANCH   1   5
BRANCH   3  26
ATOM     26  C   UNL     1      23.548  -0.250  53.505  1.00  0.00     0.119 C 
BRANCH  26  27
ATOM     27  C   UNL     1      24.873  -0.997  53.731  1.00  0.00     0.011 C 
ATOM     28  C   UNL     1      25.892  -0.666  52.624  1.00  0.00     0.021 C 
ATOM     29  C   UNL     1      25.447  -0.691  55.128  1.00  0.00     0.021 C 
ATOM     30  C   UNL     1      27.326  -0.864  53.110  1.00  0.00     0.084 C 
ATOM     31  C   UNL     1      26.520   0.395  55.068  1.00  0.00     0.084 C 
ATOM     32  N   UNL     1      27.673  -0.018  54.258  1.00  0.00    -0.306 NA
ATOM     33  C   UNL     1      28.475   1.140  53.870  1.00  0.00     0.105 C 
ENDBRANCH  26  27
ENDBRANCH   3  26
TORSDOF 4
ENDMDL
MODEL 8
REMARK VINA RESULT:    -8.647      1.580      2.012
REMARK INTER + INTRA:         -12.025
REMARK INTER:                 -10.861
REMARK INTRA:                  -1.164
REMARK UNBOUND:                -1.356
REMARK SMILES Cc1[nH]c(/C=C2\C(=O)Nc3ccc(F)cc32)c(C)c1C(=O)NCC1CCN(C)CC1
REMARK SMILES IDX 20 1 21 2 22 3 19 5 2 6 3 7 4 8 17 9 1 10 18 12 5 13 6 14
REMARK SMILES IDX 7 15 16 16 8 17 9 18 15 19 10 20 13 21 11 22 12 23 14 25
REMARK SMILES IDX 23 26 24 27 25 28 30 29 26 30 29 31 27 32 28 33
REMARK H PARENT 22 4 3 11 9 24
ROOT
ATOM      1  C   UNL     1      20.806   3.168  50.292  1.00  0.00     0.253 C 
ATOM      2  O   UNL     1      19.945   2.854  49.477  1.00  0.00    -0.269 OA
ATOM      3  N   UNL     1      21.075   4.477  50.630  1.00  0.00    -0.352 N 
ATOM      4  H   UNL     1      21.641   4.634  51.451  1.00  0.00     0.163 HD
ENDROOT
BRANCH   1   5
ATOM      5  C   UNL     1      21.586   2.174  51.038  1.00  0.00     0.063 A 
ATOM      6  C   UNL     1      21.113   1.226  51.938  1.00  0.00     0.025 A 
ATOM      7  N   UNL     1      22.192   0.508  52.392  1.00  0.00    -0.358 N 
ATOM      8  C   UNL     1      23.363   0.982  51.863  1.00  0.00     0.043 A 
ATOM      9  C   UNL     1      23.020   2.024  51.006  1.00  0.00    -0.013 A 
ATOM     10  C   UNL     1      19.752   0.931  52.460  1.00  0.00     0.065 C 
ATOM     11  H   UNL     1      22.120  -0.256  53.059  1.00  0.00     0.166 HD
ATOM     12  C   UNL     1      23.945   2.861  50.186  1.00  0.00     0.047 C 
BRANCH   8  13
ATOM     13  C   UNL     1      24.633   0.439  52.212  1.00  0.00     0.041 C 
ATOM     14  C   UNL     1      25.636   0.985  52.922  1.00  0.00     0.051 C 
ATOM     15  C   UNL     1      25.766   2.339  53.581  1.00  0.00     0.256 C 
ATOM     16  C   UNL     1      26.900   0.273  53.202  1.00  0.00     0.014 A 
ATOM     17  O   UNL     1      24.963   3.253  53.596  1.00  0.00    -0.269 OA
ATOM     18  N   UNL     1      27.014   2.342  54.179  1.00  0.00    -0.321 N 
ATOM     19  C   UNL     1      27.381  -0.981  52.870  1.00  0.00     0.050 A 
ATOM     20  C   UNL     1      27.685   1.146  53.966  1.00  0.00     0.049 A 
ATOM     21  C   UNL     1      28.654  -1.327  53.321  1.00  0.00     0.123 A 
ATOM     22  C   UNL     1      28.948   0.817  54.418  1.00  0.00     0.030 A 
ATOM     23  C   UNL     1      29.436  -0.447  54.085  1.00  0.00     0.041 A 
ATOM     24  H   UNL     1      27.367   3.133  54.696  1.00  0.00     0.170 HD
ATOM     25  F   UNL     1      29.148  -2.535  53.016  1.00  0.00    -0.207 F 
ENDBRANCH   8  13
ENDBRANCH   1   5
BRANCH   3  26
ATOM     26  C   UNL     1      20.302   5.578  50.097  1.00  0.00     0.119 C 
BRANCH  26  27
ATOM     27  C   UNL     1      21.170   6.806  49.772  1.00  0.00     0.011 C 
ATOM     28  C   UNL     1      22.188   7.079  50.896  1.00  0.00     0.021 C 
ATOM     29  C   UNL     1      21.872   6.641  48.410  1.00  0.00     0.021 C 
ATOM     30  C   UNL     1      23.404   7.839  50.373  1.00  0.00     0.084 C 
ATOM     31  C   UNL     1      23.311   6.154  48.577  1.00  0.00     0.084 C 
ATOM     32  N   UNL     1      24.132   7.118  49.321  1.00  0.00    -0.306 NA
ATOM     33  C   UNL     1      25.347   6.484  49.826  1.00  0.00     0.105 C 
ENDBRANCH  26  27
ENDBRANCH   3  26
TORSDOF 4
ENDMDL
MODEL 9
REMARK VINA RESULT:    -8.543      5.161      8.398
REMARK INTER + INTRA:         -11.897
REMARK INTER:                 -10.699
REMARK INTRA:                  -1.198
REMARK UNBOUND:                -1.356
REMARK SMILES Cc1[nH]c(/C=C2\C(=O)Nc3ccc(F)cc32)c(C)c1C(=O)NCC1CCN(C)CC1
REMARK SMILES IDX 20 1 21 2 22 3 19 5 2 6 3 7 4 8 17 9 1 10 18 12 5 13 6 14
REMARK SMILES IDX 7 15 16 16 8 17 9 18 15 19 10 20 13 21 11 22 12 23 14 25
REMARK SMILES IDX 23 26 24 27 25 28 30 29 26 30 29 31 27 32 28 33
REMARK H PARENT 22 4 3 11 9 24
ROOT
ATOM      1  C   UNL     1      23.936   2.708  51.223  1.00  0.00     0.253 C 
ATOM      2  O   UNL     1      22.988   2.205  50.628  1.00  0.00    -0.269 OA
ATOM      3  N   UNL     1      24.474   2.164  52.369  1.00  0.00    -0.352 N 
ATOM      4  H   UNL     1      25.371   2.517  52.670  1.00  0.00     0.163 HD
ENDROOT
BRANCH   1   5
ATOM      5  C   UNL     1      24.632   3.902  50.731  1.00  0.00     0.063 A 
ATOM      6  C   UNL     1      24.264   5.231  50.905  1.00  0.00     0.025 A 
ATOM      7  N   UNL     1      25.207   6.010  50.281  1.00  0.00    -0.358 N 
ATOM      8  C   UNL     1      26.156   5.241  49.660  1.00  0.00     0.043 A 
ATOM      9  C   UNL     1      25.829   3.914  49.926  1.00  0.00    -0.013 A 
ATOM     10  C   UNL     1      23.094   5.868  51.565  1.00  0.00     0.065 C 
ATOM     11  H   UNL     1      25.178   7.026  50.264  1.00  0.00     0.166 HD
ATOM     12  C   UNL     1      26.561   2.694  49.471  1.00  0.00     0.047 C 
BRANCH   8  13
ATOM     13  C   UNL     1      27.220   5.806  48.901  1.00  0.00     0.041 C 
ATOM     14  C   UNL     1      27.196   6.797  47.992  1.00  0.00     0.051 C 
ATOM     15  C   UNL     1      26.055   7.637  47.466  1.00  0.00     0.256 C 
ATOM     16  C   UNL     1      28.408   7.273  47.293  1.00  0.00     0.014 A 
ATOM     17  O   UNL     1      24.876   7.580  47.760  1.00  0.00    -0.269 OA
ATOM     18  N   UNL     1      26.626   8.508  46.554  1.00  0.00    -0.321 N 
ATOM     19  C   UNL     1      29.741   6.905  47.340  1.00  0.00     0.050 A 
ATOM     20  C   UNL     1      27.995   8.306  46.443  1.00  0.00     0.049 A 
ATOM     21  C   UNL     1      30.633   7.595  46.519  1.00  0.00     0.123 A 
ATOM     22  C   UNL     1      28.866   8.997  45.624  1.00  0.00     0.030 A 
ATOM     23  C   UNL     1      30.211   8.628  45.669  1.00  0.00     0.041 A 
ATOM     24  H   UNL     1      26.086   9.191  46.044  1.00  0.00     0.170 HD
ATOM     25  F   UNL     1      31.930   7.261  46.541  1.00  0.00    -0.207 F 
ENDBRANCH   8  13
ENDBRANCH   1   5
BRANCH   3  26
ATOM     26  C   UNL     1      24.002   0.910  52.915  1.00  0.00     0.119 C 
BRANCH  26  27
ATOM     27  C   UNL     1      25.111  -0.153  53.000  1.00  0.00     0.011 C 
ATOM     28  C   UNL     1      26.386   0.316  52.272  1.00  0.00     0.021 C 
ATOM     29  C   UNL     1      25.409  -0.522  54.466  1.00  0.00     0.021 C 
ATOM     30  C   UNL     1      27.630  -0.372  52.829  1.00  0.00     0.084 C 
ATOM     31  C   UNL     1      26.627   0.231  54.997  1.00  0.00     0.084 C 
ATOM     32  N   UNL     1      27.849  -0.111  54.257  1.00  0.00    -0.306 NA
ATOM     33  C   UNL     1      28.889   0.889  54.482  1.00  0.00     0.105 C 
ENDBRANCH  26  27
ENDBRANCH   3  26
TORSDOF 4
ENDMDL
