MODEL 1
REMARK VINA RESULT:    -6.491      0.000      0.000
REMARK INTER + INTRA:          -7.772
REMARK INTER:                  -7.629
REMARK INTRA:                  -0.143
REMARK UNBOUND:                -0.143
REMARK SMILES O=CN/C=C/c1cccc(O)c1O
REMARK SMILES IDX 6 1 7 2 8 3 9 4 10 5 12 6 5 7 4 8 3 9 1 10 2 11 13 13 11 15
REMARK H PARENT 3 12 13 14 11 16
ROOT
ATOM      1  C   UNL     1      27.147   0.196  53.268  1.00  0.00     0.022 A 
ATOM      2  C   UNL     1      27.937  -0.956  53.127  1.00  0.00     0.012 A 
ATOM      3  C   UNL     1      29.285  -0.957  53.511  1.00  0.00     0.005 A 
ATOM      4  C   UNL     1      29.870   0.198  54.032  1.00  0.00     0.050 A 
ATOM      5  C   UNL     1      29.099   1.346  54.157  1.00  0.00     0.158 A 
ATOM      6  C   UNL     1      27.753   1.349  53.777  1.00  0.00     0.164 A 
ENDROOT
BRANCH   1   7
ATOM      7  C   UNL     1      25.739   0.211  52.835  1.00  0.00     0.030 C 
ATOM      8  C   UNL     1      24.749  -0.362  53.532  1.00  0.00     0.086 C 
BRANCH   8   9
ATOM      9  N   UNL     1      23.415  -0.383  53.196  1.00  0.00    -0.335 N 
ATOM     10  O   UNL     1      22.345  -1.257  55.095  1.00  0.00    -0.279 OA
ATOM     11  C   UNL     1      22.350  -0.819  53.954  1.00  0.00     0.341 C 
ATOM     12  H   UNL     1      23.182  -0.023  52.277  1.00  0.00     0.169 HD
ENDBRANCH   8   9
ENDBRANCH   1   7
BRANCH   6  13
ATOM     13  O   UNL     1      27.041   2.511  53.922  1.00  0.00    -0.504 OA
ATOM     14  H   UNL     1      26.488   2.567  53.119  1.00  0.00     0.293 HD
ENDBRANCH   6  13
BRANCH   5  15
ATOM     15  O   UNL     1      29.620   2.510  54.654  1.00  0.00    -0.504 OA
ATOM     16  H   UNL     1      29.646   3.162  53.933  1.00  0.00     0.293 HD
ENDBRANCH   5  15
TORSDOF 4
ENDMDL
MODEL 2
REMARK VINA RESULT:    -6.310      2.003      6.265
REMARK INTER + INTRA:          -7.559
REMARK INTER:                  -7.429
REMARK INTRA:                  -0.130
REMARK UNBOUND:                -0.143
REMARK SMILES O=CN/C=C/c1cccc(O)c1O
REMARK SMILES IDX 6 1 7 2 8 3 9 4 10 5 12 6 5 7 4 8 3 9 1 10 2 11 13 13 11 15
REMARK H PARENT 3 12 13 14 11 16
ROOT
ATOM      1  C   UNL     1      23.974  -0.569  54.168  1.00  0.00     0.022 A 
ATOM      2  C   UNL     1      23.798   0.207  53.011  1.00  0.00     0.012 A 
ATOM      3  C   UNL     1      22.527   0.379  52.445  1.00  0.00     0.005 A 
ATOM      4  C   UNL     1      21.411  -0.232  53.019  1.00  0.00     0.050 A 
ATOM      5  C   UNL     1      21.581  -1.016  54.153  1.00  0.00     0.158 A 
ATOM      6  C   UNL     1      22.847  -1.187  54.720  1.00  0.00     0.164 A 
ENDROOT
BRANCH   1   7
ATOM      7  C   UNL     1      25.312  -0.780  54.747  1.00  0.00     0.030 C 
ATOM      8  C   UNL     1      26.367  -0.006  54.462  1.00  0.00     0.086 C 
BRANCH   8   9
ATOM      9  N   UNL     1      27.640  -0.137  54.966  1.00  0.00    -0.335 N 
ATOM     10  O   UNL     1      29.007   0.951  53.397  1.00  0.00    -0.279 OA
ATOM     11  C   UNL     1      28.824   0.315  54.424  1.00  0.00     0.341 C 
ATOM     12  H   UNL     1      27.719  -0.619  55.854  1.00  0.00     0.169 HD
ENDBRANCH   8   9
ENDBRANCH   1   7
BRANCH   6  13
ATOM     13  O   UNL     1      22.955  -1.973  55.838  1.00  0.00    -0.504 OA
ATOM     14  H   UNL     1      22.101  -2.445  55.895  1.00  0.00     0.293 HD
ENDBRANCH   6  13
BRANCH   5  15
ATOM     15  O   UNL     1      20.526  -1.646  54.754  1.00  0.00    -0.504 OA
ATOM     16  H   UNL     1      20.742  -2.591  54.832  1.00  0.00     0.293 HD
ENDBRANCH   5  15
TORSDOF 4
ENDMDL
MODEL 3
REMARK VINA RESULT:    -6.101      1.307      1.307
REMARK INTER + INTRA:          -7.314
REMARK INTER:                  -7.395
REMARK INTRA:                   0.081
REMARK UNBOUND:                -0.143
REMARK SMILES O=CN/C=C/c1cccc(O)c1O
REMARK SMILES IDX 6 1 7 2 8 3 9 4 10 5 12 6 5 7 4 8 3 9 1 10 2 11 13 13 11 15
REMARK H PARENT 3 12 13 14 11 16
ROOT
ATOM      1  C   UNL     1      27.086   0.181  53.266  1.00  0.00     0.022 A 
ATOM      2  C   UNL     1      27.887  -0.954  53.062  1.00  0.00     0.012 A 
ATOM      3  C   UNL     1      29.248  -0.944  53.397  1.00  0.00     0.005 A 
ATOM      4  C   UNL     1      29.834   0.203  53.931  1.00  0.00     0.050 A 
ATOM      5  C   UNL     1      29.051   1.335  54.118  1.00  0.00     0.158 A 
ATOM      6  C   UNL     1      27.693   1.328  53.786  1.00  0.00     0.164 A 
ENDROOT
BRANCH   1   7
ATOM      7  C   UNL     1      25.662   0.187  52.884  1.00  0.00     0.030 C 
ATOM      8  C   UNL     1      24.693  -0.325  53.653  1.00  0.00     0.086 C 
BRANCH   8   9
ATOM      9  N   UNL     1      23.348  -0.350  53.368  1.00  0.00    -0.335 N 
ATOM     10  O   UNL     1      23.046   1.373  51.801  1.00  0.00    -0.279 OA
ATOM     11  C   UNL     1      22.639   0.467  52.513  1.00  0.00     0.341 C 
ATOM     12  H   UNL     1      22.807  -1.067  53.838  1.00  0.00     0.169 HD
ENDBRANCH   8   9
ENDBRANCH   1   7
BRANCH   6  13
ATOM     13  O   UNL     1      26.970   2.474  53.991  1.00  0.00    -0.504 OA
ATOM     14  H   UNL     1      26.469   2.605  53.163  1.00  0.00     0.293 HD
ENDBRANCH   6  13
BRANCH   5  15
ATOM     15  O   UNL     1      29.573   2.492  54.630  1.00  0.00    -0.504 OA
ATOM     16  H   UNL     1      29.236   3.236  54.101  1.00  0.00     0.293 HD
ENDBRANCH   5  15
TORSDOF 4
ENDMDL
MODEL 4
REMARK VINA RESULT:    -6.037      2.675      3.291
REMARK INTER + INTRA:          -7.238
REMARK INTER:                  -7.089
REMARK INTRA:                  -0.149
REMARK UNBOUND:                -0.143
REMARK SMILES O=CN/C=C/c1cccc(O)c1O
REMARK SMILES IDX 6 1 7 2 8 3 9 4 10 5 12 6 5 7 4 8 3 9 1 10 2 11 13 13 11 15
REMARK H PARENT 3 12 13 14 11 16
ROOT
ATOM      1  C   UNL     1      27.324  -0.123  52.782  1.00  0.00     0.022 A 
ATOM      2  C   UNL     1      28.355   0.707  53.252  1.00  0.00     0.012 A 
ATOM      3  C   UNL     1      29.561   0.165  53.716  1.00  0.00     0.005 A 
ATOM      4  C   UNL     1      29.755  -1.216  53.729  1.00  0.00     0.050 A 
ATOM      5  C   UNL     1      28.733  -2.044  53.282  1.00  0.00     0.158 A 
ATOM      6  C   UNL     1      27.529  -1.506  52.817  1.00  0.00     0.164 A 
ENDROOT
BRANCH   1   7
ATOM      7  C   UNL     1      26.041   0.440  52.325  1.00  0.00     0.030 C 
ATOM      8  C   UNL     1      24.983   0.603  53.129  1.00  0.00     0.086 C 
BRANCH   8   9
ATOM      9  N   UNL     1      23.760   1.125  52.778  1.00  0.00    -0.335 N 
ATOM     10  O   UNL     1      24.107   3.447  52.715  1.00  0.00    -0.279 OA
ATOM     11  C   UNL     1      23.410   2.448  52.614  1.00  0.00     0.341 C 
ATOM     12  H   UNL     1      23.021   0.451  52.609  1.00  0.00     0.169 HD
ENDBRANCH   8   9
ENDBRANCH   1   7
BRANCH   6  13
ATOM     13  O   UNL     1      26.555  -2.371  52.389  1.00  0.00    -0.504 OA
ATOM     14  H   UNL     1      26.966  -2.864  51.652  1.00  0.00     0.293 HD
ENDBRANCH   6  13
BRANCH   5  15
ATOM     15  O   UNL     1      28.862  -3.406  53.279  1.00  0.00    -0.504 OA
ATOM     16  H   UNL     1      29.453  -3.657  54.009  1.00  0.00     0.293 HD
ENDBRANCH   5  15
TORSDOF 4
ENDMDL
MODEL 5
REMARK VINA RESULT:    -5.730      2.598      5.095
REMARK INTER + INTRA:          -6.877
REMARK INTER:                  -6.703
REMARK INTRA:                  -0.174
REMARK UNBOUND:                -0.143
REMARK SMILES O=CN/C=C/c1cccc(O)c1O
REMARK SMILES IDX 6 1 7 2 8 3 9 4 10 5 12 6 5 7 4 8 3 9 1 10 2 11 13 13 11 15
REMARK H PARENT 3 12 13 14 11 16
ROOT
ATOM      1  C   UNL     1      25.247   0.509  53.426  1.00  0.00     0.022 A 
ATOM      2  C   UNL     1      24.021  -0.132  53.188  1.00  0.00     0.012 A 
ATOM      3  C   UNL     1      22.895   0.595  52.777  1.00  0.00     0.005 A 
ATOM      4  C   UNL     1      22.972   1.977  52.608  1.00  0.00     0.050 A 
ATOM      5  C   UNL     1      24.177   2.620  52.859  1.00  0.00     0.158 A 
ATOM      6  C   UNL     1      25.302   1.898  53.268  1.00  0.00     0.164 A 
ENDROOT
BRANCH   1   7
ATOM      7  C   UNL     1      26.423  -0.245  53.891  1.00  0.00     0.030 C 
ATOM      8  C   UNL     1      27.286  -0.847  53.062  1.00  0.00     0.086 C 
BRANCH   8   9
ATOM      9  N   UNL     1      28.405  -1.561  53.419  1.00  0.00    -0.335 N 
ATOM     10  O   UNL     1      30.082   0.063  53.676  1.00  0.00    -0.279 OA
ATOM     11  C   UNL     1      29.674  -1.088  53.679  1.00  0.00     0.341 C 
ATOM     12  H   UNL     1      28.282  -2.563  53.515  1.00  0.00     0.169 HD
ENDBRANCH   8   9
ENDBRANCH   1   7
BRANCH   6  13
ATOM     13  O   UNL     1      26.464   2.586  53.502  1.00  0.00    -0.504 OA
ATOM     14  H   UNL     1      27.035   1.954  53.981  1.00  0.00     0.293 HD
ENDBRANCH   6  13
BRANCH   5  15
ATOM     15  O   UNL     1      24.311   3.975  52.718  1.00  0.00    -0.504 OA
ATOM     16  H   UNL     1      24.062   4.212  51.808  1.00  0.00     0.293 HD
ENDBRANCH   5  15
TORSDOF 4
ENDMDL
MODEL 6
REMARK VINA RESULT:    -5.691      2.776      3.041
REMARK INTER + INTRA:          -6.832
REMARK INTER:                  -6.661
REMARK INTRA:                  -0.171
REMARK UNBOUND:                -0.143
REMARK SMILES O=CN/C=C/c1cccc(O)c1O
REMARK SMILES IDX 6 1 7 2 8 3 9 4 10 5 12 6 5 7 4 8 3 9 1 10 2 11 13 13 11 15
REMARK H PARENT 3 12 13 14 11 16
ROOT
ATOM      1  C   UNL     1      26.246   1.400  53.404  1.00  0.00     0.022 A 
ATOM      2  C   UNL     1      25.885   0.115  52.970  1.00  0.00     0.012 A 
ATOM      3  C   UNL     1      26.845  -0.900  52.846  1.00  0.00     0.005 A 
ATOM      4  C   UNL     1      28.184  -0.643  53.144  1.00  0.00     0.050 A 
ATOM      5  C   UNL     1      28.550   0.631  53.557  1.00  0.00     0.158 A 
ATOM      6  C   UNL     1      27.595   1.644  53.683  1.00  0.00     0.164 A 
ENDROOT
BRANCH   1   7
ATOM      7  C   UNL     1      25.247   2.479  53.503  1.00  0.00     0.030 C 
ATOM      8  C   UNL     1      24.815   3.180  52.447  1.00  0.00     0.086 C 
BRANCH   8   9
ATOM      9  N   UNL     1      23.885   4.193  52.459  1.00  0.00    -0.335 N 
ATOM     10  O   UNL     1      21.828   3.105  52.143  1.00  0.00    -0.279 OA
ATOM     11  C   UNL     1      22.519   4.100  52.301  1.00  0.00     0.341 C 
ATOM     12  H   UNL     1      24.247   5.127  52.614  1.00  0.00     0.169 HD
ENDBRANCH   8   9
ENDBRANCH   1   7
BRANCH   6  13
ATOM     13  O   UNL     1      28.014   2.883  54.093  1.00  0.00    -0.504 OA
ATOM     14  H   UNL     1      28.985   2.806  54.165  1.00  0.00     0.293 HD
ENDBRANCH   6  13
BRANCH   5  15
ATOM     15  O   UNL     1      29.848   0.944  53.855  1.00  0.00    -0.504 OA
ATOM     16  H   UNL     1      29.919   1.911  53.922  1.00  0.00     0.293 HD
ENDBRANCH   5  15
TORSDOF 4
ENDMDL
MODEL 7
REMARK VINA RESULT:    -5.567      1.743      2.324
REMARK INTER + INTRA:          -6.686
REMARK INTER:                  -6.524
REMARK INTRA:                  -0.162
REMARK UNBOUND:                -0.143
REMARK SMILES O=CN/C=C/c1cccc(O)c1O
REMARK SMILES IDX 6 1 7 2 8 3 9 4 10 5 12 6 5 7 4 8 3 9 1 10 2 11 13 13 11 15
REMARK H PARENT 3 12 13 14 11 16
ROOT
ATOM      1  C   UNL     1      25.549   0.232  53.299  1.00  0.00     0.022 A 
ATOM      2  C   UNL     1      25.738   1.009  52.146  1.00  0.00     0.012 A 
ATOM      3  C   UNL     1      26.909   1.758  51.966  1.00  0.00     0.005 A 
ATOM      4  C   UNL     1      27.906   1.753  52.942  1.00  0.00     0.050 A 
ATOM      5  C   UNL     1      27.717   1.001  54.094  1.00  0.00     0.158 A 
ATOM      6  C   UNL     1      26.551   0.251  54.275  1.00  0.00     0.164 A 
ENDROOT
BRANCH   1   7
ATOM      7  C   UNL     1      24.305  -0.531  53.509  1.00  0.00     0.030 C 
ATOM      8  C   UNL     1      23.120  -0.155  53.011  1.00  0.00     0.086 C 
BRANCH   8   9
ATOM      9  N   UNL     1      21.922  -0.814  53.158  1.00  0.00    -0.335 N 
ATOM     10  O   UNL     1      20.866   0.277  54.950  1.00  0.00    -0.279 OA
ATOM     11  C   UNL     1      20.925  -0.580  54.080  1.00  0.00     0.341 C 
ATOM     12  H   UNL     1      21.744  -1.564  52.500  1.00  0.00     0.169 HD
ENDBRANCH   8   9
ENDBRANCH   1   7
BRANCH   6  13
ATOM     13  O   UNL     1      26.418  -0.471  55.432  1.00  0.00    -0.504 OA
ATOM     14  H   UNL     1      25.455  -0.507  55.596  1.00  0.00     0.293 HD
ENDBRANCH   6  13
BRANCH   5  15
ATOM     15  O   UNL     1      28.655   0.963  55.089  1.00  0.00    -0.504 OA
ATOM     16  H   UNL     1      28.192   0.991  55.944  1.00  0.00     0.293 HD
ENDBRANCH   5  15
TORSDOF 4
ENDMDL
MODEL 8
REMARK VINA RESULT:    -5.361      2.480      6.981
REMARK INTER + INTRA:          -6.443
REMARK INTER:                  -6.291
REMARK INTRA:                  -0.152
REMARK UNBOUND:                -0.143
REMARK SMILES O=CN/C=C/c1cccc(O)c1O
REMARK SMILES IDX 6 1 7 2 8 3 9 4 10 5 12 6 5 7 4 8 3 9 1 10 2 11 13 13 11 15
REMARK H PARENT 3 12 13 14 11 16
ROOT
ATOM      1  C   UNL     1      22.256  -0.287  53.241  1.00  0.00     0.022 A 
ATOM      2  C   UNL     1      22.107   0.364  52.006  1.00  0.00     0.012 A 
ATOM      3  C   UNL     1      20.839   0.551  51.439  1.00  0.00     0.005 A 
ATOM      4  C   UNL     1      19.698   0.082  52.092  1.00  0.00     0.050 A 
ATOM      5  C   UNL     1      19.841  -0.578  53.306  1.00  0.00     0.158 A 
ATOM      6  C   UNL     1      21.104  -0.765  53.874  1.00  0.00     0.164 A 
ENDROOT
BRANCH   1   7
ATOM      7  C   UNL     1      23.590  -0.517  53.825  1.00  0.00     0.030 C 
ATOM      8  C   UNL     1      24.663   0.224  53.519  1.00  0.00     0.086 C 
BRANCH   8   9
ATOM      9  N   UNL     1      25.933   0.074  54.025  1.00  0.00    -0.335 N 
ATOM     10  O   UNL     1      27.104  -1.074  52.344  1.00  0.00    -0.279 OA
ATOM     11  C   UNL     1      27.018  -0.546  53.442  1.00  0.00     0.341 C 
ATOM     12  H   UNL     1      26.098   0.479  54.940  1.00  0.00     0.169 HD
ENDBRANCH   8   9
ENDBRANCH   1   7
BRANCH   6  13
ATOM     13  O   UNL     1      21.184  -1.425  55.073  1.00  0.00    -0.504 OA
ATOM     14  H   UNL     1      22.054  -1.870  55.055  1.00  0.00     0.293 HD
ENDBRANCH   6  13
BRANCH   5  15
ATOM     15  O   UNL     1      18.760  -1.068  53.988  1.00  0.00    -0.504 OA
ATOM     16  H   UNL     1      18.333  -0.327  54.452  1.00  0.00     0.293 HD
ENDBRANCH   5  15
TORSDOF 4
ENDMDL
MODEL 9
REMARK VINA RESULT:    -5.265      2.441      5.862
REMARK INTER + INTRA:          -6.332
REMARK INTER:                  -6.171
REMARK INTRA:                  -0.160
REMARK UNBOUND:                -0.143
REMARK SMILES O=CN/C=C/c1cccc(O)c1O
REMARK SMILES IDX 6 1 7 2 8 3 9 4 10 5 12 6 5 7 4 8 3 9 1 10 2 11 13 13 11 15
REMARK H PARENT 3 12 13 14 11 16
ROOT
ATOM      1  C   UNL     1      23.911  -0.052  53.460  1.00  0.00     0.022 A 
ATOM      2  C   UNL     1      23.446  -0.851  54.516  1.00  0.00     0.012 A 
ATOM      3  C   UNL     1      22.083  -0.897  54.840  1.00  0.00     0.005 A 
ATOM      4  C   UNL     1      21.162  -0.135  54.120  1.00  0.00     0.050 A 
ATOM      5  C   UNL     1      21.617   0.671  53.085  1.00  0.00     0.158 A 
ATOM      6  C   UNL     1      22.976   0.717  52.759  1.00  0.00     0.164 A 
ENDROOT
BRANCH   1   7
ATOM      7  C   UNL     1      25.346   0.026  53.138  1.00  0.00     0.030 C 
ATOM      8  C   UNL     1      26.163  -1.036  53.161  1.00  0.00     0.086 C 
BRANCH   8   9
ATOM      9  N   UNL     1      27.507  -1.043  52.868  1.00  0.00    -0.335 N 
ATOM     10  O   UNL     1      28.525  -0.089  54.757  1.00  0.00    -0.279 OA
ATOM     11  C   UNL     1      28.552  -0.580  53.639  1.00  0.00     0.341 C 
ATOM     12  H   UNL     1      27.766  -1.448  51.976  1.00  0.00     0.169 HD
ENDBRANCH   8   9
ENDBRANCH   1   7
BRANCH   6  13
ATOM     13  O   UNL     1      23.368   1.532  51.729  1.00  0.00    -0.504 OA
ATOM     14  H   UNL     1      22.535   1.823  51.310  1.00  0.00     0.293 HD
ENDBRANCH   6  13
BRANCH   5  15
ATOM     15  O   UNL     1      20.762   1.446  52.349  1.00  0.00    -0.504 OA
ATOM     16  H   UNL     1      20.951   1.295  51.407  1.00  0.00     0.293 HD
ENDBRANCH   5  15
TORSDOF 4
ENDMDL
