MODEL 1
REMARK VINA RESULT:    -9.079      0.000      0.000
REMARK INTER + INTRA:         -12.656
REMARK INTER:                 -11.998
REMARK INTRA:                  -0.658
REMARK UNBOUND:                -0.658
REMARK SMILES CCOC(=O)c1nn(-c2ccccc2)c(=O)c2c(N)c(C#N)c(-c3cccs3)cc12
REMARK SMILES IDX 4 1 5 2 3 3 2 4 1 5 6 6 7 7 30 8 8 9 29 10 17 11 15 12 23 13
REMARK SMILES IDX 18 14 16 15 20 16 21 17 22 18 9 19 10 20 14 21 11 22 13 23
REMARK SMILES IDX 12 24 24 25 25 26 28 27 26 28 27 29 19 30
REMARK H PARENT 19 31 19 32
ROOT
ATOM      1  C   UNL     1      24.256   2.860  50.340  1.00  0.00     0.359 C 
ATOM      2  O   UNL     1      23.680   2.719  49.278  1.00  0.00    -0.244 OA
ENDROOT
BRANCH   1   3
ATOM      3  O   UNL     1      24.913   3.940  50.806  1.00  0.00    -0.461 OA
BRANCH   3   4
ATOM      4  C   UNL     1      25.592   4.722  49.815  1.00  0.00     0.230 C 
ATOM      5  C   UNL     1      26.843   4.002  49.348  1.00  0.00     0.049 C 
ENDBRANCH   3   4
ENDBRANCH   1   3
BRANCH   1   6
ATOM      6  C   UNL     1      24.275   1.779  51.401  1.00  0.00     0.177 C 
ATOM      7  N   UNL     1      25.439   1.436  51.851  1.00  0.00    -0.157 NA
ATOM      8  C   UNL     1      23.014   1.184  51.846  1.00  0.00     0.025 A 
ATOM      9  N   UNL     1      25.539   0.471  52.829  1.00  0.00    -0.196 N 
ATOM     10  C   UNL     1      21.784   1.570  51.302  1.00  0.00     0.022 A 
ATOM     11  C   UNL     1      23.078   0.205  52.834  1.00  0.00     0.076 A 
ATOM     12  C   UNL     1      24.412  -0.127  53.419  1.00  0.00     0.281 C 
ATOM     13  C   UNL     1      20.593   0.963  51.726  1.00  0.00     0.012 A 
ATOM     14  C   UNL     1      21.885  -0.417  53.295  1.00  0.00     0.064 A 
ATOM     15  O   UNL     1      24.425  -0.868  54.402  1.00  0.00    -0.267 OA
ATOM     16  C   UNL     1      20.647  -0.044  52.710  1.00  0.00     0.084 A 
ATOM     17  C   UNL     1      19.436  -0.698  53.130  1.00  0.00     0.102 C 
ATOM     18  N   UNL     1      18.466  -1.212  53.508  1.00  0.00    -0.192 NA
BRANCH   9  19
ATOM     19  C   UNL     1      26.903   0.194  53.215  1.00  0.00     0.069 A 
ATOM     20  C   UNL     1      27.681   1.083  53.971  1.00  0.00     0.028 A 
ATOM     21  C   UNL     1      27.508  -1.027  52.852  1.00  0.00     0.028 A 
ATOM     22  C   UNL     1      29.000   0.778  54.333  1.00  0.00     0.002 A 
ATOM     23  C   UNL     1      28.825  -1.335  53.210  1.00  0.00     0.002 A 
ATOM     24  C   UNL     1      29.573  -0.429  53.950  1.00  0.00     0.000 A 
ENDBRANCH   9  19
BRANCH  13  25
ATOM     25  C   UNL     1      19.329   1.402  51.125  1.00  0.00     0.036 A 
ATOM     26  C   UNL     1      18.565   0.778  50.158  1.00  0.00     0.020 A 
ATOM     27  S   UNL     1      18.630   2.888  51.618  1.00  0.00    -0.144 S 
ATOM     28  C   UNL     1      17.401   1.529  49.821  1.00  0.00     0.012 A 
ATOM     29  C   UNL     1      17.315   2.699  50.542  1.00  0.00     0.065 A 
ENDBRANCH  13  25
BRANCH  14  30
ATOM     30  N   UNL     1      21.943  -1.541  54.152  1.00  0.00    -0.397 N 
ATOM     31  H   UNL     1      22.839  -1.758  54.580  1.00  0.00     0.156 HD
ATOM     32  H   UNL     1      21.498  -2.376  53.747  1.00  0.00     0.156 HD
ENDBRANCH  14  30
ENDBRANCH   1   6
TORSDOF 6
ENDMDL
MODEL 2
REMARK VINA RESULT:    -8.982      0.784      1.385
REMARK INTER + INTRA:         -12.529
REMARK INTER:                 -11.426
REMARK INTRA:                  -1.103
REMARK UNBOUND:                -0.658
REMARK SMILES CCOC(=O)c1nn(-c2ccccc2)c(=O)c2c(N)c(C#N)c(-c3cccs3)cc12
REMARK SMILES IDX 4 1 5 2 3 3 2 4 1 5 6 6 7 7 30 8 8 9 29 10 17 11 15 12 23 13
REMARK SMILES IDX 18 14 16 15 20 16 21 17 22 18 9 19 10 20 14 21 11 22 13 23
REMARK SMILES IDX 12 24 24 25 25 26 28 27 26 28 27 29 19 30
REMARK H PARENT 19 31 19 32
ROOT
ATOM      1  C   UNL     1      24.414   3.022  50.455  1.00  0.00     0.359 C 
ATOM      2  O   UNL     1      24.293   2.833  49.259  1.00  0.00    -0.244 OA
ENDROOT
BRANCH   1   3
ATOM      3  O   UNL     1      24.529   4.190  51.116  1.00  0.00    -0.461 OA
BRANCH   3   4
ATOM      4  C   UNL     1      23.495   5.148  50.856  1.00  0.00     0.230 C 
ATOM      5  C   UNL     1      22.497   5.165  51.999  1.00  0.00     0.049 C 
ENDBRANCH   3   4
ENDBRANCH   1   3
BRANCH   1   6
ATOM      6  C   UNL     1      24.398   1.889  51.460  1.00  0.00     0.177 C 
ATOM      7  N   UNL     1      25.549   1.499  51.905  1.00  0.00    -0.157 NA
ATOM      8  C   UNL     1      23.120   1.300  51.861  1.00  0.00     0.025 A 
ATOM      9  N   UNL     1      25.618   0.485  52.834  1.00  0.00    -0.196 N 
ATOM     10  C   UNL     1      21.905   1.739  51.323  1.00  0.00     0.022 A 
ATOM     11  C   UNL     1      23.152   0.271  52.798  1.00  0.00     0.076 A 
ATOM     12  C   UNL     1      24.472  -0.119  53.381  1.00  0.00     0.281 C 
ATOM     13  C   UNL     1      20.697   1.137  51.703  1.00  0.00     0.012 A 
ATOM     14  C   UNL     1      21.941  -0.348  53.215  1.00  0.00     0.064 A 
ATOM     15  O   UNL     1      24.456  -0.908  54.326  1.00  0.00    -0.267 OA
ATOM     16  C   UNL     1      20.718   0.081  52.636  1.00  0.00     0.084 A 
ATOM     17  C   UNL     1      19.488  -0.567  53.009  1.00  0.00     0.102 C 
ATOM     18  N   UNL     1      18.503  -1.078  53.350  1.00  0.00    -0.192 NA
BRANCH   9  19
ATOM     19  C   UNL     1      26.970   0.159  53.221  1.00  0.00     0.069 A 
ATOM     20  C   UNL     1      27.594  -1.052  52.883  1.00  0.00     0.028 A 
ATOM     21  C   UNL     1      27.739   1.084  53.957  1.00  0.00     0.028 A 
ATOM     22  C   UNL     1      28.911  -1.332  53.272  1.00  0.00     0.002 A 
ATOM     23  C   UNL     1      29.054   0.808  54.347  1.00  0.00     0.002 A 
ATOM     24  C   UNL     1      29.640  -0.404  54.006  1.00  0.00     0.000 A 
ENDBRANCH   9  19
BRANCH  13  25
ATOM     25  C   UNL     1      19.449   1.632  51.112  1.00  0.00     0.036 A 
ATOM     26  C   UNL     1      18.667   1.058  50.128  1.00  0.00     0.020 A 
ATOM     27  S   UNL     1      18.800   3.129  51.639  1.00  0.00    -0.144 S 
ATOM     28  C   UNL     1      17.529   1.856  49.808  1.00  0.00     0.012 A 
ATOM     29  C   UNL     1      17.481   3.010  50.556  1.00  0.00     0.065 A 
ENDBRANCH  13  25
BRANCH  14  30
ATOM     30  N   UNL     1      21.965  -1.514  54.014  1.00  0.00    -0.397 N 
ATOM     31  H   UNL     1      22.874  -1.898  54.255  1.00  0.00     0.156 HD
ATOM     32  H   UNL     1      21.316  -2.240  53.681  1.00  0.00     0.156 HD
ENDBRANCH  14  30
ENDBRANCH   1   6
TORSDOF 6
ENDMDL
MODEL 3
REMARK VINA RESULT:    -8.595      2.084      4.382
REMARK INTER + INTRA:         -12.016
REMARK INTER:                 -11.569
REMARK INTRA:                  -0.447
REMARK UNBOUND:                -0.658
REMARK SMILES CCOC(=O)c1nn(-c2ccccc2)c(=O)c2c(N)c(C#N)c(-c3cccs3)cc12
REMARK SMILES IDX 4 1 5 2 3 3 2 4 1 5 6 6 7 7 30 8 8 9 29 10 17 11 15 12 23 13
REMARK SMILES IDX 18 14 16 15 20 16 21 17 22 18 9 19 10 20 14 21 11 22 13 23
REMARK SMILES IDX 12 24 24 25 25 26 28 27 26 28 27 29 19 30
REMARK H PARENT 19 31 19 32
ROOT
ATOM      1  C   UNL     1      22.938  -0.915  54.258  1.00  0.00     0.359 C 
ATOM      2  O   UNL     1      23.098  -1.063  55.454  1.00  0.00    -0.244 OA
ENDROOT
BRANCH   1   3
ATOM      3  O   UNL     1      21.908  -1.317  53.488  1.00  0.00    -0.461 OA
BRANCH   3   4
ATOM      4  C   UNL     1      20.696  -1.622  54.192  1.00  0.00     0.230 C 
ATOM      5  C   UNL     1      19.512  -0.972  53.501  1.00  0.00     0.049 C 
ENDBRANCH   3   4
ENDBRANCH   1   3
BRANCH   1   6
ATOM      6  C   UNL     1      23.922  -0.150  53.398  1.00  0.00     0.177 C 
ATOM      7  N   UNL     1      25.175  -0.424  53.575  1.00  0.00    -0.157 NA
ATOM      8  C   UNL     1      23.426   0.841  52.442  1.00  0.00     0.025 A 
ATOM      9  N   UNL     1      26.131   0.217  52.820  1.00  0.00    -0.196 N 
ATOM     10  C   UNL     1      22.061   1.122  52.314  1.00  0.00     0.022 A 
ATOM     11  C   UNL     1      24.366   1.510  51.662  1.00  0.00     0.076 A 
ATOM     12  C   UNL     1      25.804   1.129  51.801  1.00  0.00     0.281 C 
ATOM     13  C   UNL     1      21.615   2.098  51.411  1.00  0.00     0.012 A 
ATOM     14  C   UNL     1      23.941   2.493  50.726  1.00  0.00     0.064 A 
ATOM     15  O   UNL     1      26.592   1.609  50.986  1.00  0.00    -0.267 OA
ATOM     16  C   UNL     1      22.558   2.795  50.631  1.00  0.00     0.084 A 
ATOM     17  C   UNL     1      22.115   3.823  49.725  1.00  0.00     0.102 C 
ATOM     18  N   UNL     1      21.774   4.629  48.962  1.00  0.00    -0.192 NA
BRANCH   9  19
ATOM     19  C   UNL     1      27.478  -0.190  53.144  1.00  0.00     0.069 A 
ATOM     20  C   UNL     1      28.435   0.685  53.680  1.00  0.00     0.028 A 
ATOM     21  C   UNL     1      27.882  -1.526  52.943  1.00  0.00     0.028 A 
ATOM     22  C   UNL     1      29.733   0.254  53.988  1.00  0.00     0.002 A 
ATOM     23  C   UNL     1      29.178  -1.960  53.248  1.00  0.00     0.002 A 
ATOM     24  C   UNL     1      30.105  -1.068  53.769  1.00  0.00     0.000 A 
ENDBRANCH   9  19
BRANCH  13  25
ATOM     25  C   UNL     1      20.174   2.356  51.313  1.00  0.00     0.036 A 
ATOM     26  C   UNL     1      19.425   3.339  51.931  1.00  0.00     0.020 A 
ATOM     27  S   UNL     1      19.199   1.345  50.330  1.00  0.00    -0.144 S 
ATOM     28  C   UNL     1      18.041   3.256  51.593  1.00  0.00     0.012 A 
ATOM     29  C   UNL     1      17.782   2.215  50.730  1.00  0.00     0.065 A 
ENDBRANCH  13  25
BRANCH  14  30
ATOM     30  N   UNL     1      24.884   3.315  50.067  1.00  0.00    -0.397 N 
ATOM     31  H   UNL     1      25.083   3.110  49.092  1.00  0.00     0.156 HD
ATOM     32  H   UNL     1      25.744   3.455  50.614  1.00  0.00     0.156 HD
ENDBRANCH  14  30
ENDBRANCH   1   6
TORSDOF 6
ENDMDL
MODEL 4
REMARK VINA RESULT:    -8.284      2.462      4.808
REMARK INTER + INTRA:         -11.606
REMARK INTER:                 -10.614
REMARK INTRA:                  -0.992
REMARK UNBOUND:                -0.658
REMARK SMILES CCOC(=O)c1nn(-c2ccccc2)c(=O)c2c(N)c(C#N)c(-c3cccs3)cc12
REMARK SMILES IDX 4 1 5 2 3 3 2 4 1 5 6 6 7 7 30 8 8 9 29 10 17 11 15 12 23 13
REMARK SMILES IDX 18 14 16 15 20 16 21 17 22 18 9 19 10 20 14 21 11 22 13 23
REMARK SMILES IDX 12 24 24 25 25 26 28 27 26 28 27 29 19 30
REMARK H PARENT 19 31 19 32
ROOT
ATOM      1  C   UNL     1      22.320   0.304  52.596  1.00  0.00     0.359 C 
ATOM      2  O   UNL     1      21.744  -0.485  51.872  1.00  0.00    -0.244 OA
ENDROOT
BRANCH   1   3
ATOM      3  O   UNL     1      22.047   0.630  53.875  1.00  0.00    -0.461 OA
BRANCH   3   4
ATOM      4  C   UNL     1      21.573  -0.445  54.696  1.00  0.00     0.230 C 
ATOM      5  C   UNL     1      22.735  -1.310  55.146  1.00  0.00     0.049 C 
ENDBRANCH   3   4
ENDBRANCH   1   3
BRANCH   1   6
ATOM      6  C   UNL     1      23.558   1.055  52.153  1.00  0.00     0.177 C 
ATOM      7  N   UNL     1      24.687   0.627  52.619  1.00  0.00    -0.157 NA
ATOM      8  C   UNL     1      23.423   2.202  51.254  1.00  0.00     0.025 A 
ATOM      9  N   UNL     1      25.861   1.246  52.250  1.00  0.00    -0.196 N 
ATOM     10  C   UNL     1      22.173   2.643  50.806  1.00  0.00     0.022 A 
ATOM     11  C   UNL     1      24.589   2.853  50.862  1.00  0.00     0.076 A 
ATOM     12  C   UNL     1      25.900   2.304  51.325  1.00  0.00     0.281 C 
ATOM     13  C   UNL     1      22.069   3.763  49.968  1.00  0.00     0.012 A 
ATOM     14  C   UNL     1      24.516   3.982  49.999  1.00  0.00     0.064 A 
ATOM     15  O   UNL     1      26.917   2.790  50.831  1.00  0.00    -0.267 OA
ATOM     16  C   UNL     1      23.241   4.443  49.580  1.00  0.00     0.084 A 
ATOM     17  C   UNL     1      23.145   5.613  48.748  1.00  0.00     0.102 C 
ATOM     18  N   UNL     1      23.092   6.537  48.048  1.00  0.00    -0.192 NA
BRANCH   9  19
ATOM     19  C   UNL     1      27.030   0.659  52.862  1.00  0.00     0.069 A 
ATOM     20  C   UNL     1      27.898   1.375  53.701  1.00  0.00     0.028 A 
ATOM     21  C   UNL     1      27.335  -0.700  52.646  1.00  0.00     0.028 A 
ATOM     22  C   UNL     1      29.021   0.771  54.281  1.00  0.00     0.002 A 
ATOM     23  C   UNL     1      28.457  -1.307  53.223  1.00  0.00     0.002 A 
ATOM     24  C   UNL     1      29.302  -0.569  54.041  1.00  0.00     0.000 A 
ENDBRANCH   9  19
BRANCH  13  25
ATOM     25  C   UNL     1      20.737   4.187  49.525  1.00  0.00     0.036 A 
ATOM     26  C   UNL     1      19.867   5.079  50.122  1.00  0.00     0.020 A 
ATOM     27  S   UNL     1      20.077   3.531  48.085  1.00  0.00    -0.144 S 
ATOM     28  C   UNL     1      18.651   5.220  49.389  1.00  0.00     0.012 A 
ATOM     29  C   UNL     1      18.634   4.432  48.260  1.00  0.00     0.065 A 
ENDBRANCH  13  25
BRANCH  14  30
ATOM     30  N   UNL     1      25.663   4.769  49.745  1.00  0.00    -0.397 N 
ATOM     31  H   UNL     1      26.058   5.287  50.525  1.00  0.00     0.156 HD
ATOM     32  H   UNL     1      25.567   5.355  48.903  1.00  0.00     0.156 HD
ENDBRANCH  14  30
ENDBRANCH   1   6
TORSDOF 6
ENDMDL
MODEL 5
REMARK VINA RESULT:    -8.227      2.550      7.420
REMARK INTER + INTRA:         -11.530
REMARK INTER:                 -10.412
REMARK INTRA:                  -1.118
REMARK UNBOUND:                -0.658
REMARK SMILES CCOC(=O)c1nn(-c2ccccc2)c(=O)c2c(N)c(C#N)c(-c3cccs3)cc12
REMARK SMILES IDX 4 1 5 2 3 3 2 4 1 5 6 6 7 7 30 8 8 9 29 10 17 11 15 12 23 13
REMARK SMILES IDX 18 14 16 15 20 16 21 17 22 18 9 19 10 20 14 21 11 22 13 23
REMARK SMILES IDX 12 24 24 25 25 26 28 27 26 28 27 29 19 30
REMARK H PARENT 19 31 19 32
ROOT
ATOM      1  C   UNL     1      21.779   1.902  49.360  1.00  0.00     0.359 C 
ATOM      2  O   UNL     1      22.018   1.381  48.288  1.00  0.00    -0.244 OA
ENDROOT
BRANCH   1   3
ATOM      3  O   UNL     1      22.077   3.148  49.778  1.00  0.00    -0.461 OA
BRANCH   3   4
ATOM      4  C   UNL     1      23.147   3.793  49.074  1.00  0.00     0.230 C 
ATOM      5  C   UNL     1      24.466   3.531  49.775  1.00  0.00     0.049 C 
ENDBRANCH   3   4
ENDBRANCH   1   3
BRANCH   1   6
ATOM      6  C   UNL     1      21.003   1.193  50.450  1.00  0.00     0.177 C 
ATOM      7  N   UNL     1      19.717   1.150  50.305  1.00  0.00    -0.157 NA
ATOM      8  C   UNL     1      21.720   0.616  51.587  1.00  0.00     0.025 A 
ATOM      9  N   UNL     1      18.941   0.509  51.246  1.00  0.00    -0.196 N 
ATOM     10  C   UNL     1      23.110   0.720  51.711  1.00  0.00     0.022 A 
ATOM     11  C   UNL     1      20.968  -0.039  52.558  1.00  0.00     0.076 A 
ATOM     12  C   UNL     1      19.494  -0.169  52.347  1.00  0.00     0.281 C 
ATOM     13  C   UNL     1      23.770   0.184  52.826  1.00  0.00     0.012 A 
ATOM     14  C   UNL     1      21.611  -0.607  53.692  1.00  0.00     0.064 A 
ATOM     15  O   UNL     1      18.877  -0.895  53.127  1.00  0.00    -0.267 OA
ATOM     16  C   UNL     1      23.017  -0.464  53.825  1.00  0.00     0.084 A 
ATOM     17  C   UNL     1      23.679  -0.989  54.991  1.00  0.00     0.102 C 
ATOM     18  N   UNL     1      24.198  -1.451  55.920  1.00  0.00    -0.192 NA
BRANCH   9  19
ATOM     19  C   UNL     1      17.529   0.557  50.947  1.00  0.00     0.069 A 
ATOM     20  C   UNL     1      16.873  -0.421  50.184  1.00  0.00     0.028 A 
ATOM     21  C   UNL     1      16.736   1.612  51.444  1.00  0.00     0.028 A 
ATOM     22  C   UNL     1      15.499  -0.343  49.919  1.00  0.00     0.002 A 
ATOM     23  C   UNL     1      15.364   1.692  51.181  1.00  0.00     0.002 A 
ATOM     24  C   UNL     1      14.745   0.714  50.414  1.00  0.00     0.000 A 
ENDBRANCH   9  19
BRANCH  13  25
ATOM     25  C   UNL     1      25.229   0.318  52.910  1.00  0.00     0.036 A 
ATOM     26  C   UNL     1      26.206  -0.588  52.546  1.00  0.00     0.020 A 
ATOM     27  S   UNL     1      25.909   1.757  53.547  1.00  0.00    -0.144 S 
ATOM     28  C   UNL     1      27.521  -0.093  52.795  1.00  0.00     0.012 A 
ATOM     29  C   UNL     1      27.502   1.171  53.339  1.00  0.00     0.065 A 
ENDBRANCH  13  25
BRANCH  14  30
ATOM     30  N   UNL     1      20.853  -1.104  54.777  1.00  0.00    -0.397 N 
ATOM     31  H   UNL     1      19.979  -1.576  54.561  1.00  0.00     0.156 HD
ATOM     32  H   UNL     1      20.743  -0.417  55.536  1.00  0.00     0.156 HD
ENDBRANCH  14  30
ENDBRANCH   1   6
TORSDOF 6
ENDMDL
MODEL 6
REMARK VINA RESULT:    -8.110      3.021      7.117
REMARK INTER + INTRA:         -11.376
REMARK INTER:                 -10.990
REMARK INTRA:                  -0.386
REMARK UNBOUND:                -0.658
REMARK SMILES CCOC(=O)c1nn(-c2ccccc2)c(=O)c2c(N)c(C#N)c(-c3cccs3)cc12
REMARK SMILES IDX 4 1 5 2 3 3 2 4 1 5 6 6 7 7 30 8 8 9 29 10 17 11 15 12 23 13
REMARK SMILES IDX 18 14 16 15 20 16 21 17 22 18 9 19 10 20 14 21 11 22 13 23
REMARK SMILES IDX 12 24 24 25 25 26 28 27 26 28 27 29 19 30
REMARK H PARENT 19 31 19 32
ROOT
ATOM      1  C   UNL     1      25.909   1.873  52.865  1.00  0.00     0.359 C 
ATOM      2  O   UNL     1      26.226   2.433  53.897  1.00  0.00    -0.244 OA
ENDROOT
BRANCH   1   3
ATOM      3  O   UNL     1      26.633   1.023  52.110  1.00  0.00    -0.461 OA
BRANCH   3   4
ATOM      4  C   UNL     1      27.291  -0.029  52.827  1.00  0.00     0.230 C 
ATOM      5  C   UNL     1      26.603  -1.355  52.559  1.00  0.00     0.049 C 
ENDBRANCH   3   4
ENDBRANCH   1   3
BRANCH   1   6
ATOM      6  C   UNL     1      24.529   2.014  52.258  1.00  0.00     0.177 C 
ATOM      7  N   UNL     1      23.619   1.210  52.706  1.00  0.00    -0.157 NA
ATOM      8  C   UNL     1      24.300   3.015  51.215  1.00  0.00     0.025 A 
ATOM      9  N   UNL     1      22.334   1.287  52.216  1.00  0.00    -0.196 N 
ATOM     10  C   UNL     1      25.329   3.837  50.743  1.00  0.00     0.022 A 
ATOM     11  C   UNL     1      23.012   3.119  50.696  1.00  0.00     0.076 A 
ATOM     12  C   UNL     1      21.939   2.256  51.276  1.00  0.00     0.281 C 
ATOM     13  C   UNL     1      25.089   4.768  49.723  1.00  0.00     0.012 A 
ATOM     14  C   UNL     1      22.735   4.066  49.671  1.00  0.00     0.064 A 
ATOM     15  O   UNL     1      20.783   2.484  50.922  1.00  0.00    -0.267 OA
ATOM     16  C   UNL     1      23.795   4.869  49.175  1.00  0.00     0.084 A 
ATOM     17  C   UNL     1      23.543   5.797  48.104  1.00  0.00     0.102 C 
ATOM     18  N   UNL     1      23.311   6.565  47.265  1.00  0.00    -0.192 NA
BRANCH   9  19
ATOM     19  C   UNL     1      21.441   0.318  52.808  1.00  0.00     0.069 A 
ATOM     20  C   UNL     1      20.068   0.269  52.525  1.00  0.00     0.028 A 
ATOM     21  C   UNL     1      21.940  -0.652  53.701  1.00  0.00     0.028 A 
ATOM     22  C   UNL     1      19.232  -0.688  53.116  1.00  0.00     0.002 A 
ATOM     23  C   UNL     1      21.108  -1.609  54.293  1.00  0.00     0.002 A 
ATOM     24  C   UNL     1      19.751  -1.626  54.001  1.00  0.00     0.000 A 
ENDBRANCH   9  19
BRANCH  13  25
ATOM     25  C   UNL     1      26.200   5.607  49.262  1.00  0.00     0.036 A 
ATOM     26  C   UNL     1      27.337   5.237  48.568  1.00  0.00     0.020 A 
ATOM     27  S   UNL     1      26.183   7.289  49.593  1.00  0.00    -0.144 S 
ATOM     28  C   UNL     1      28.197   6.346  48.311  1.00  0.00     0.012 A 
ATOM     29  C   UNL     1      27.688   7.521  48.815  1.00  0.00     0.065 A 
ENDBRANCH  13  25
BRANCH  14  30
ATOM     30  N   UNL     1      21.491   4.056  48.999  1.00  0.00    -0.397 N 
ATOM     31  H   UNL     1      21.507   3.996  47.984  1.00  0.00     0.156 HD
ATOM     32  H   UNL     1      20.851   4.791  49.331  1.00  0.00     0.156 HD
ENDBRANCH  14  30
ENDBRANCH   1   6
TORSDOF 6
ENDMDL
MODEL 7
REMARK VINA RESULT:    -7.895      2.523      5.552
REMARK INTER + INTRA:         -11.091
REMARK INTER:                 -11.319
REMARK INTRA:                   0.228
REMARK UNBOUND:                -0.658
REMARK SMILES CCOC(=O)c1nn(-c2ccccc2)c(=O)c2c(N)c(C#N)c(-c3cccs3)cc12
REMARK SMILES IDX 4 1 5 2 3 3 2 4 1 5 6 6 7 7 30 8 8 9 29 10 17 11 15 12 23 13
REMARK SMILES IDX 18 14 16 15 20 16 21 17 22 18 9 19 10 20 14 21 11 22 13 23
REMARK SMILES IDX 12 24 24 25 25 26 28 27 26 28 27 29 19 30
REMARK H PARENT 19 31 19 32
ROOT
ATOM      1  C   UNL     1      26.275   2.030  52.585  1.00  0.00     0.359 C 
ATOM      2  O   UNL     1      26.057   2.281  53.754  1.00  0.00    -0.244 OA
ENDROOT
BRANCH   1   3
ATOM      3  O   UNL     1      27.132   1.131  52.061  1.00  0.00    -0.461 OA
BRANCH   3   4
ATOM      4  C   UNL     1      26.661  -0.222  52.030  1.00  0.00     0.230 C 
ATOM      5  C   UNL     1      27.269  -1.014  53.172  1.00  0.00     0.049 C 
ENDBRANCH   3   4
ENDBRANCH   1   3
BRANCH   1   6
ATOM      6  C   UNL     1      25.520   2.702  51.457  1.00  0.00     0.177 C 
ATOM      7  N   UNL     1      26.175   3.585  50.773  1.00  0.00    -0.157 NA
ATOM      8  C   UNL     1      24.125   2.341  51.208  1.00  0.00     0.025 A 
ATOM      9  N   UNL     1      25.564   4.229  49.720  1.00  0.00    -0.196 N 
ATOM     10  C   UNL     1      23.454   1.402  52.001  1.00  0.00     0.022 A 
ATOM     11  C   UNL     1      23.474   2.973  50.152  1.00  0.00     0.076 A 
ATOM     12  C   UNL     1      24.255   3.924  49.304  1.00  0.00     0.281 C 
ATOM     13  C   UNL     1      22.107   1.095  51.758  1.00  0.00     0.012 A 
ATOM     14  C   UNL     1      22.113   2.670  49.873  1.00  0.00     0.064 A 
ATOM     15  O   UNL     1      23.712   4.339  48.281  1.00  0.00    -0.267 OA
ATOM     16  C   UNL     1      21.433   1.744  50.705  1.00  0.00     0.084 A 
ATOM     17  C   UNL     1      20.041   1.463  50.468  1.00  0.00     0.102 C 
ATOM     18  N   UNL     1      18.929   1.222  50.238  1.00  0.00    -0.192 NA
BRANCH   9  19
ATOM     19  C   UNL     1      26.421   5.189  49.066  1.00  0.00     0.069 A 
ATOM     20  C   UNL     1      26.001   6.484  48.724  1.00  0.00     0.028 A 
ATOM     21  C   UNL     1      27.755   4.854  48.758  1.00  0.00     0.028 A 
ATOM     22  C   UNL     1      26.863   7.392  48.094  1.00  0.00     0.002 A 
ATOM     23  C   UNL     1      28.619   5.758  48.128  1.00  0.00     0.002 A 
ATOM     24  C   UNL     1      28.170   7.028  47.794  1.00  0.00     0.000 A 
ENDBRANCH   9  19
BRANCH  13  25
ATOM     25  C   UNL     1      21.448   0.105  52.617  1.00  0.00     0.036 A 
ATOM     26  C   UNL     1      20.098  -0.093  52.834  1.00  0.00     0.020 A 
ATOM     27  S   UNL     1      22.400  -0.994  53.524  1.00  0.00    -0.144 S 
ATOM     28  C   UNL     1      19.849  -1.154  53.755  1.00  0.00     0.012 A 
ATOM     29  C   UNL     1      21.015  -1.729  54.207  1.00  0.00     0.065 A 
ENDBRANCH  13  25
BRANCH  14  30
ATOM     30  N   UNL     1      21.382   3.435  48.935  1.00  0.00    -0.397 N 
ATOM     31  H   UNL     1      21.867   4.201  48.475  1.00  0.00     0.156 HD
ATOM     32  H   UNL     1      20.457   3.721  49.285  1.00  0.00     0.156 HD
ENDBRANCH  14  30
ENDBRANCH   1   6
TORSDOF 6
ENDMDL
MODEL 8
REMARK VINA RESULT:    -7.798      2.554      7.204
REMARK INTER + INTRA:         -10.964
REMARK INTER:                  -9.928
REMARK INTRA:                  -1.037
REMARK UNBOUND:                -0.658
REMARK SMILES CCOC(=O)c1nn(-c2ccccc2)c(=O)c2c(N)c(C#N)c(-c3cccs3)cc12
REMARK SMILES IDX 4 1 5 2 3 3 2 4 1 5 6 6 7 7 30 8 8 9 29 10 17 11 15 12 23 13
REMARK SMILES IDX 18 14 16 15 20 16 21 17 22 18 9 19 10 20 14 21 11 22 13 23
REMARK SMILES IDX 12 24 24 25 25 26 28 27 26 28 27 29 19 30
REMARK H PARENT 19 31 19 32
ROOT
ATOM      1  C   UNL     1      23.108   3.188  49.650  1.00  0.00     0.359 C 
ATOM      2  O   UNL     1      23.445   2.710  48.584  1.00  0.00    -0.244 OA
ENDROOT
BRANCH   1   3
ATOM      3  O   UNL     1      23.544   4.317  50.244  1.00  0.00    -0.461 OA
BRANCH   3   4
ATOM      4  C   UNL     1      24.969   4.461  50.318  1.00  0.00     0.230 C 
ATOM      5  C   UNL     1      25.444   5.484  49.303  1.00  0.00     0.049 C 
ENDBRANCH   3   4
ENDBRANCH   1   3
BRANCH   1   6
ATOM      6  C   UNL     1      22.026   2.570  50.509  1.00  0.00     0.177 C 
ATOM      7  N   UNL     1      20.808   2.916  50.238  1.00  0.00    -0.157 NA
ATOM      8  C   UNL     1      22.397   1.645  51.581  1.00  0.00     0.025 A 
ATOM      9  N   UNL     1      19.766   2.385  50.965  1.00  0.00    -0.196 N 
ATOM     10  C   UNL     1      23.733   1.329  51.852  1.00  0.00     0.022 A 
ATOM     11  C   UNL     1      21.368   1.089  52.336  1.00  0.00     0.076 A 
ATOM     12  C   UNL     1      19.958   1.417  51.966  1.00  0.00     0.281 C 
ATOM     13  C   UNL     1      24.063   0.462  52.904  1.00  0.00     0.012 A 
ATOM     14  C   UNL     1      21.671   0.194  53.399  1.00  0.00     0.064 A 
ATOM     15  O   UNL     1      19.067   0.785  52.535  1.00  0.00    -0.267 OA
ATOM     16  C   UNL     1      23.031  -0.090  53.688  1.00  0.00     0.084 A 
ATOM     17  C   UNL     1      23.358  -0.955  54.792  1.00  0.00     0.102 C 
ATOM     18  N   UNL     1      23.600  -1.683  55.663  1.00  0.00    -0.192 NA
BRANCH   9  19
ATOM     19  C   UNL     1      18.474   2.878  50.549  1.00  0.00     0.069 A 
ATOM     20  C   UNL     1      17.731   3.806  51.294  1.00  0.00     0.028 A 
ATOM     21  C   UNL     1      17.908   2.445  49.332  1.00  0.00     0.028 A 
ATOM     22  C   UNL     1      16.482   4.266  50.857  1.00  0.00     0.002 A 
ATOM     23  C   UNL     1      16.660   2.902  48.892  1.00  0.00     0.002 A 
ATOM     24  C   UNL     1      15.946   3.813  49.657  1.00  0.00     0.000 A 
ENDBRANCH   9  19
BRANCH  13  25
ATOM     25  C   UNL     1      25.477   0.163  53.149  1.00  0.00     0.036 A 
ATOM     26  C   UNL     1      26.240  -0.882  52.663  1.00  0.00     0.020 A 
ATOM     27  S   UNL     1      26.392   1.185  54.177  1.00  0.00    -0.144 S 
ATOM     28  C   UNL     1      27.583  -0.839  53.142  1.00  0.00     0.012 A 
ATOM     29  C   UNL     1      27.799   0.235  53.976  1.00  0.00     0.065 A 
ENDBRANCH  13  25
BRANCH  14  30
ATOM     30  N   UNL     1      20.663  -0.229  54.295  1.00  0.00    -0.397 N 
ATOM     31  H   UNL     1      20.901  -0.961  54.958  1.00  0.00     0.156 HD
ATOM     32  H   UNL     1      19.763  -0.410  53.829  1.00  0.00     0.156 HD
ENDBRANCH  14  30
ENDBRANCH   1   6
TORSDOF 6
ENDMDL
MODEL 9
REMARK VINA RESULT:    -7.736      2.088      2.572
REMARK INTER + INTRA:         -10.882
REMARK INTER:                 -10.086
REMARK INTRA:                  -0.796
REMARK UNBOUND:                -0.658
REMARK SMILES CCOC(=O)c1nn(-c2ccccc2)c(=O)c2c(N)c(C#N)c(-c3cccs3)cc12
REMARK SMILES IDX 4 1 5 2 3 3 2 4 1 5 6 6 7 7 30 8 8 9 29 10 17 11 15 12 23 13
REMARK SMILES IDX 18 14 16 15 20 16 21 17 22 18 9 19 10 20 14 21 11 22 13 23
REMARK SMILES IDX 12 24 24 25 25 26 28 27 26 28 27 29 19 30
REMARK H PARENT 19 31 19 32
ROOT
ATOM      1  C   UNL     1      25.807   4.430  49.937  1.00  0.00     0.359 C 
ATOM      2  O   UNL     1      26.385   4.358  48.869  1.00  0.00    -0.244 OA
ENDROOT
BRANCH   1   3
ATOM      3  O   UNL     1      25.389   5.528  50.597  1.00  0.00    -0.461 OA
BRANCH   3   4
ATOM      4  C   UNL     1      25.433   6.750  49.848  1.00  0.00     0.230 C 
ATOM      5  C   UNL     1      24.150   7.534  50.050  1.00  0.00     0.049 C 
ENDBRANCH   3   4
ENDBRANCH   1   3
BRANCH   1   6
ATOM      6  C   UNL     1      25.389   3.202  50.717  1.00  0.00     0.177 C 
ATOM      7  N   UNL     1      26.328   2.578  51.354  1.00  0.00    -0.157 NA
ATOM      8  C   UNL     1      23.987   2.783  50.706  1.00  0.00     0.025 A 
ATOM      9  N   UNL     1      26.026   1.461  52.100  1.00  0.00    -0.196 N 
ATOM     10  C   UNL     1      23.017   3.476  49.973  1.00  0.00     0.022 A 
ATOM     11  C   UNL     1      23.646   1.656  51.449  1.00  0.00     0.076 A 
ATOM     12  C   UNL     1      24.711   0.989  52.258  1.00  0.00     0.281 C 
ATOM     13  C   UNL     1      21.685   3.037  49.957  1.00  0.00     0.012 A 
ATOM     14  C   UNL     1      22.300   1.197  51.465  1.00  0.00     0.064 A 
ATOM     15  O   UNL     1      24.353   0.104  53.035  1.00  0.00    -0.267 OA
ATOM     16  C   UNL     1      21.332   1.886  50.688  1.00  0.00     0.084 A 
ATOM     17  C   UNL     1      19.976   1.405  50.652  1.00  0.00     0.102 C 
ATOM     18  N   UNL     1      18.879   1.023  50.666  1.00  0.00    -0.192 NA
BRANCH   9  19
ATOM     19  C   UNL     1      27.181   0.875  52.739  1.00  0.00     0.069 A 
ATOM     20  C   UNL     1      28.102   1.620  53.491  1.00  0.00     0.028 A 
ATOM     21  C   UNL     1      27.417  -0.512  52.642  1.00  0.00     0.028 A 
ATOM     22  C   UNL     1      29.209   1.017  54.101  1.00  0.00     0.002 A 
ATOM     23  C   UNL     1      28.522  -1.118  53.251  1.00  0.00     0.002 A 
ATOM     24  C   UNL     1      29.421  -0.352  53.979  1.00  0.00     0.000 A 
ENDBRANCH   9  19
BRANCH  13  25
ATOM     25  C   UNL     1      20.705   3.796  49.173  1.00  0.00     0.036 A 
ATOM     26  C   UNL     1      20.365   3.660  47.841  1.00  0.00     0.020 A 
ATOM     27  S   UNL     1      19.818   5.057  49.924  1.00  0.00    -0.144 S 
ATOM     28  C   UNL     1      19.371   4.600  47.438  1.00  0.00     0.012 A 
ATOM     29  C   UNL     1      18.986   5.420  48.474  1.00  0.00     0.065 A 
ENDBRANCH  13  25
BRANCH  14  30
ATOM     30  N   UNL     1      21.969  -0.047  52.052  1.00  0.00    -0.397 N 
ATOM     31  H   UNL     1      22.396  -0.270  52.947  1.00  0.00     0.156 HD
ATOM     32  H   UNL     1      22.033  -0.832  51.388  1.00  0.00     0.156 HD
ENDBRANCH  14  30
ENDBRANCH   1   6
TORSDOF 6
ENDMDL
