MODEL 1
REMARK VINA RESULT:    -7.735      0.000      0.000
REMARK INTER + INTRA:         -12.900
REMARK INTER:                 -11.804
REMARK INTRA:                  -1.096
REMARK UNBOUND:                -1.096
REMARK SMILES COc1ccc(Cc2nc(-c3cc(Br)c(OCCCN(C)C)c(Br)c3)c[nH]c2=O)cc1Br
REMARK SMILES IDX 11 1 12 2 13 3 14 4 15 5 23 6 24 7 25 8 10 9 8 10 9 11 28 12
REMARK SMILES IDX 27 13 29 14 26 15 7 17 6 18 3 19 4 20 31 21 5 22 30 23 32 24
REMARK SMILES IDX 2 25 1 26 16 27 17 28 18 29 19 30 20 31 21 32 22 33
REMARK H PARENT 27 16
ROOT
ATOM      1  C   UNL     1      25.242   4.956  49.185  1.00  0.00     0.004 A 
ATOM      2  C   UNL     1      24.674   6.187  48.825  1.00  0.00     0.030 A 
ATOM      3  C   UNL     1      25.473   7.218  48.316  1.00  0.00     0.061 A 
ATOM      4  Br  UNL     1      24.613   8.833  47.806  1.00  0.00    -0.047 Br
ATOM      5  C   UNL     1      26.856   7.044  48.186  1.00  0.00     0.147 A 
ATOM      6  C   UNL     1      27.424   5.808  48.516  1.00  0.00     0.061 A 
ATOM      7  Br  UNL     1      29.278   5.458  48.278  1.00  0.00    -0.047 Br
ATOM      8  C   UNL     1      26.625   4.781  49.027  1.00  0.00     0.030 A 
ENDROOT
BRANCH   1   9
ATOM      9  C   UNL     1      24.431   3.858  49.760  1.00  0.00     0.087 C 
ATOM     10  C   UNL     1      23.999   2.534  51.586  1.00  0.00     0.110 C 
ATOM     11  N   UNL     1      24.708   3.498  51.063  1.00  0.00    -0.245 NA
ATOM     12  C   UNL     1      22.891   1.809  50.823  1.00  0.00     0.270 C 
ATOM     13  N   UNL     1      22.739   2.230  49.526  1.00  0.00    -0.325 N 
ATOM     14  O   UNL     1      22.209   0.944  51.347  1.00  0.00    -0.268 OA
ATOM     15  C   UNL     1      23.499   3.244  49.006  1.00  0.00     0.115 C 
ATOM     16  H   UNL     1      22.028   1.769  48.972  1.00  0.00     0.169 HD
BRANCH  10  17
ATOM     17  C   UNL     1      24.275   2.065  52.993  1.00  0.00     0.097 C 
BRANCH  17  18
ATOM     18  C   UNL     1      25.546   1.257  53.080  1.00  0.00    -0.040 A 
ATOM     19  C   UNL     1      27.907  -0.284  53.284  1.00  0.00     0.133 A 
ATOM     20  C   UNL     1      26.730  -0.847  52.783  1.00  0.00     0.048 A 
ATOM     21  C   UNL     1      27.892   1.062  53.682  1.00  0.00     0.060 A 
ATOM     22  C   UNL     1      25.561  -0.085  52.685  1.00  0.00     0.008 A 
ATOM     23  C   UNL     1      26.722   1.825  53.586  1.00  0.00     0.023 A 
ATOM     24  Br  UNL     1      29.443   1.908  54.383  1.00  0.00    -0.047 Br
BRANCH  19  25
ATOM     25  O   UNL     1      29.096  -0.956  53.404  1.00  0.00    -0.496 OA
ATOM     26  C   UNL     1      29.078  -2.366  53.222  1.00  0.00     0.278 C 
ENDBRANCH  19  25
ENDBRANCH  17  18
ENDBRANCH  10  17
ENDBRANCH   1   9
BRANCH   5  27
ATOM     27  O   UNL     1      27.634   8.049  47.667  1.00  0.00    -0.491 OA
BRANCH  27  28
ATOM     28  C   UNL     1      28.265   8.801  48.718  1.00  0.00     0.231 C 
BRANCH  28  29
ATOM     29  C   UNL     1      29.100   9.894  48.063  1.00  0.00     0.057 C 
BRANCH  29  30
ATOM     30  C   UNL     1      30.601   9.829  48.365  1.00  0.00     0.087 C 
BRANCH  30  31
ATOM     31  N   UNL     1      31.300   8.543  48.302  1.00  0.00    -0.309 NA
ATOM     32  C   UNL     1      31.851   8.100  49.578  1.00  0.00     0.104 C 
ATOM     33  C   UNL     1      32.266   8.430  47.220  1.00  0.00     0.104 C 
ENDBRANCH  30  31
ENDBRANCH  29  30
ENDBRANCH  28  29
ENDBRANCH  27  28
ENDBRANCH   5  27
TORSDOF 9
ENDMDL
MODEL 2
REMARK VINA RESULT:    -7.668      1.213      2.223
REMARK INTER + INTRA:         -12.799
REMARK INTER:                 -11.782
REMARK INTRA:                  -1.017
REMARK UNBOUND:                -1.096
REMARK SMILES COc1ccc(Cc2nc(-c3cc(Br)c(OCCCN(C)C)c(Br)c3)c[nH]c2=O)cc1Br
REMARK SMILES IDX 11 1 12 2 13 3 14 4 15 5 23 6 24 7 25 8 10 9 8 10 9 11 28 12
REMARK SMILES IDX 27 13 29 14 26 15 7 17 6 18 3 19 4 20 31 21 5 22 30 23 32 24
REMARK SMILES IDX 2 25 1 26 16 27 17 28 18 29 19 30 20 31 21 32 22 33
REMARK H PARENT 27 16
ROOT
ATOM      1  C   UNL     1      25.069   4.883  49.392  1.00  0.00     0.004 A 
ATOM      2  C   UNL     1      26.423   4.721  49.066  1.00  0.00     0.030 A 
ATOM      3  C   UNL     1      27.197   5.819  48.669  1.00  0.00     0.061 A 
ATOM      4  Br  UNL     1      29.035   5.517  48.296  1.00  0.00    -0.047 Br
ATOM      5  C   UNL     1      26.620   7.091  48.565  1.00  0.00     0.147 A 
ATOM      6  C   UNL     1      25.277   7.263  48.916  1.00  0.00     0.061 A 
ATOM      7  Br  UNL     1      24.444   8.973  48.896  1.00  0.00    -0.047 Br
ATOM      8  C   UNL     1      24.505   6.166  49.310  1.00  0.00     0.030 A 
ENDROOT
BRANCH   1   9
ATOM      9  C   UNL     1      24.215   3.737  49.779  1.00  0.00     0.087 C 
ATOM     10  C   UNL     1      23.537   2.318  51.453  1.00  0.00     0.110 C 
ATOM     11  N   UNL     1      24.285   3.326  51.095  1.00  0.00    -0.245 NA
ATOM     12  C   UNL     1      22.598   1.595  50.487  1.00  0.00     0.270 C 
ATOM     13  N   UNL     1      22.648   2.070  49.200  1.00  0.00    -0.325 N 
ATOM     14  O   UNL     1      21.871   0.687  50.855  1.00  0.00    -0.268 OA
ATOM     15  C   UNL     1      23.445   3.129  48.856  1.00  0.00     0.115 C 
ATOM     16  H   UNL     1      22.056   1.614  48.517  1.00  0.00     0.169 HD
BRANCH  10  17
ATOM     17  C   UNL     1      23.592   1.795  52.866  1.00  0.00     0.097 C 
BRANCH  17  18
ATOM     18  C   UNL     1      24.945   1.217  53.201  1.00  0.00    -0.040 A 
ATOM     19  C   UNL     1      27.503   0.168  53.793  1.00  0.00     0.133 A 
ATOM     20  C   UNL     1      27.140   1.447  54.226  1.00  0.00     0.048 A 
ATOM     21  C   UNL     1      26.571  -0.583  53.061  1.00  0.00     0.060 A 
ATOM     22  C   UNL     1      25.875   1.967  53.929  1.00  0.00     0.008 A 
ATOM     23  C   UNL     1      25.306  -0.063  52.763  1.00  0.00     0.023 A 
ATOM     24  Br  UNL     1      26.981  -2.328  52.425  1.00  0.00    -0.047 Br
BRANCH  19  25
ATOM     25  O   UNL     1      28.715  -0.419  54.047  1.00  0.00    -0.496 OA
ATOM     26  C   UNL     1      29.884   0.271  53.623  1.00  0.00     0.278 C 
ENDBRANCH  19  25
ENDBRANCH  17  18
ENDBRANCH  10  17
ENDBRANCH   1   9
BRANCH   5  27
ATOM     27  O   UNL     1      27.386   8.169  48.196  1.00  0.00    -0.491 OA
BRANCH  27  28
ATOM     28  C   UNL     1      27.867   8.874  49.353  1.00  0.00     0.231 C 
BRANCH  28  29
ATOM     29  C   UNL     1      28.800   9.974  48.866  1.00  0.00     0.057 C 
BRANCH  29  30
ATOM     30  C   UNL     1      30.276   9.780  49.231  1.00  0.00     0.087 C 
BRANCH  30  31
ATOM     31  N   UNL     1      31.023   8.655  48.664  1.00  0.00    -0.309 NA
ATOM     32  C   UNL     1      31.842   7.934  49.632  1.00  0.00     0.104 C 
ATOM     33  C   UNL     1      31.760   8.968  47.449  1.00  0.00     0.104 C 
ENDBRANCH  30  31
ENDBRANCH  29  30
ENDBRANCH  28  29
ENDBRANCH  27  28
ENDBRANCH   5  27
TORSDOF 9
ENDMDL
MODEL 3
REMARK VINA RESULT:    -7.381      5.575     10.050
REMARK INTER + INTRA:         -12.360
REMARK INTER:                 -11.695
REMARK INTRA:                  -0.665
REMARK UNBOUND:                -1.096
REMARK SMILES COc1ccc(Cc2nc(-c3cc(Br)c(OCCCN(C)C)c(Br)c3)c[nH]c2=O)cc1Br
REMARK SMILES IDX 11 1 12 2 13 3 14 4 15 5 23 6 24 7 25 8 10 9 8 10 9 11 28 12
REMARK SMILES IDX 27 13 29 14 26 15 7 17 6 18 3 19 4 20 31 21 5 22 30 23 32 24
REMARK SMILES IDX 2 25 1 26 16 27 17 28 18 29 19 30 20 31 21 32 22 33
REMARK H PARENT 27 16
ROOT
ATOM      1  C   UNL     1      20.653  -0.198  52.565  1.00  0.00     0.004 A 
ATOM      2  C   UNL     1      19.328  -0.565  52.848  1.00  0.00     0.030 A 
ATOM      3  C   UNL     1      18.289  -0.201  51.984  1.00  0.00     0.061 A 
ATOM      4  Br  UNL     1      16.533  -0.784  52.418  1.00  0.00    -0.047 Br
ATOM      5  C   UNL     1      18.553   0.559  50.838  1.00  0.00     0.147 A 
ATOM      6  C   UNL     1      19.876   0.902  50.535  1.00  0.00     0.061 A 
ATOM      7  Br  UNL     1      20.331   1.848  48.950  1.00  0.00    -0.047 Br
ATOM      8  C   UNL     1      20.912   0.541  51.401  1.00  0.00     0.030 A 
ENDROOT
BRANCH   1   9
ATOM      9  C   UNL     1      21.770  -0.535  53.477  1.00  0.00     0.087 C 
ATOM     10  C   UNL     1      24.024  -0.406  53.892  1.00  0.00     0.110 C 
ATOM     11  N   UNL     1      23.029  -0.119  53.097  1.00  0.00    -0.245 NA
ATOM     12  C   UNL     1      23.847  -1.166  55.206  1.00  0.00     0.270 C 
ATOM     13  N   UNL     1      22.555  -1.560  55.453  1.00  0.00    -0.325 N 
ATOM     14  O   UNL     1      24.783  -1.381  55.957  1.00  0.00    -0.268 OA
ATOM     15  C   UNL     1      21.533  -1.244  54.598  1.00  0.00     0.115 C 
ATOM     16  H   UNL     1      22.386  -2.081  56.304  1.00  0.00     0.169 HD
BRANCH  10  17
ATOM     17  C   UNL     1      25.432  -0.014  53.520  1.00  0.00     0.097 C 
BRANCH  17  18
ATOM     18  C   UNL     1      25.460   1.183  52.601  1.00  0.00    -0.040 A 
ATOM     19  C   UNL     1      25.559   3.443  50.905  1.00  0.00     0.133 A 
ATOM     20  C   UNL     1      26.453   2.382  50.732  1.00  0.00     0.048 A 
ATOM     21  C   UNL     1      24.611   3.360  51.937  1.00  0.00     0.060 A 
ATOM     22  C   UNL     1      26.406   1.266  51.574  1.00  0.00     0.008 A 
ATOM     23  C   UNL     1      24.564   2.244  52.781  1.00  0.00     0.023 A 
ATOM     24  Br  UNL     1      23.361   4.758  52.251  1.00  0.00    -0.047 Br
BRANCH  19  25
ATOM     25  O   UNL     1      25.530   4.567  50.121  1.00  0.00    -0.496 OA
ATOM     26  C   UNL     1      26.582   4.741  49.180  1.00  0.00     0.278 C 
ENDBRANCH  19  25
ENDBRANCH  17  18
ENDBRANCH  10  17
ENDBRANCH   1   9
BRANCH   5  27
ATOM     27  O   UNL     1      17.535   0.895  49.981  1.00  0.00    -0.491 OA
BRANCH  27  28
ATOM     28  C   UNL     1      16.977   2.174  50.328  1.00  0.00     0.231 C 
BRANCH  28  29
ATOM     29  C   UNL     1      15.469   2.087  50.131  1.00  0.00     0.057 C 
BRANCH  29  30
ATOM     30  C   UNL     1      14.635   2.371  51.385  1.00  0.00     0.087 C 
BRANCH  30  31
ATOM     31  N   UNL     1      14.453   3.752  51.839  1.00  0.00    -0.309 NA
ATOM     32  C   UNL     1      15.116   4.057  53.102  1.00  0.00     0.104 C 
ATOM     33  C   UNL     1      13.076   4.221  51.816  1.00  0.00     0.104 C 
ENDBRANCH  30  31
ENDBRANCH  29  30
ENDBRANCH  28  29
ENDBRANCH  27  28
ENDBRANCH   5  27
TORSDOF 9
ENDMDL
MODEL 4
REMARK VINA RESULT:    -7.314      6.522     10.370
REMARK INTER + INTRA:         -12.259
REMARK INTER:                 -11.258
REMARK INTRA:                  -1.001
REMARK UNBOUND:                -1.096
REMARK SMILES COc1ccc(Cc2nc(-c3cc(Br)c(OCCCN(C)C)c(Br)c3)c[nH]c2=O)cc1Br
REMARK SMILES IDX 11 1 12 2 13 3 14 4 15 5 23 6 24 7 25 8 10 9 8 10 9 11 28 12
REMARK SMILES IDX 27 13 29 14 26 15 7 17 6 18 3 19 4 20 31 21 5 22 30 23 32 24
REMARK SMILES IDX 2 25 1 26 16 27 17 28 18 29 19 30 20 31 21 32 22 33
REMARK H PARENT 27 16
ROOT
ATOM      1  C   UNL     1      20.962   0.021  53.033  1.00  0.00     0.004 A 
ATOM      2  C   UNL     1      22.081  -0.585  53.623  1.00  0.00     0.030 A 
ATOM      3  C   UNL     1      23.330   0.045  53.593  1.00  0.00     0.061 A 
ATOM      4  Br  UNL     1      24.780  -0.824  54.461  1.00  0.00    -0.047 Br
ATOM      5  C   UNL     1      23.487   1.278  52.949  1.00  0.00     0.147 A 
ATOM      6  C   UNL     1      22.368   1.901  52.384  1.00  0.00     0.061 A 
ATOM      7  Br  UNL     1      22.476   3.619  51.576  1.00  0.00    -0.047 Br
ATOM      8  C   UNL     1      21.122   1.269  52.412  1.00  0.00     0.030 A 
ENDROOT
BRANCH   1   9
ATOM      9  C   UNL     1      19.635  -0.636  53.016  1.00  0.00     0.087 C 
ATOM     10  C   UNL     1      17.528  -0.699  52.104  1.00  0.00     0.110 C 
ATOM     11  N   UNL     1      18.702  -0.129  52.133  1.00  0.00    -0.245 NA
ATOM     12  C   UNL     1      17.158  -1.889  52.989  1.00  0.00     0.270 C 
ATOM     13  N   UNL     1      18.156  -2.275  53.850  1.00  0.00    -0.325 N 
ATOM     14  O   UNL     1      16.072  -2.437  52.910  1.00  0.00    -0.268 OA
ATOM     15  C   UNL     1      19.377  -1.655  53.858  1.00  0.00     0.115 C 
ATOM     16  H   UNL     1      17.956  -3.050  54.470  1.00  0.00     0.169 HD
BRANCH  10  17
ATOM     17  C   UNL     1      16.450  -0.172  51.190  1.00  0.00     0.097 C 
BRANCH  17  18
ATOM     18  C   UNL     1      15.651   0.932  51.839  1.00  0.00    -0.040 A 
ATOM     19  C   UNL     1      14.194   3.008  53.088  1.00  0.00     0.133 A 
ATOM     20  C   UNL     1      15.301   3.298  52.284  1.00  0.00     0.048 A 
ATOM     21  C   UNL     1      13.822   1.665  53.259  1.00  0.00     0.060 A 
ATOM     22  C   UNL     1      16.023   2.270  51.669  1.00  0.00     0.008 A 
ATOM     23  C   UNL     1      14.545   0.636  52.645  1.00  0.00     0.023 A 
ATOM     24  Br  UNL     1      12.336   1.177  54.341  1.00  0.00    -0.047 Br
BRANCH  19  25
ATOM     25  O   UNL     1      13.427   3.953  53.718  1.00  0.00    -0.496 OA
ATOM     26  C   UNL     1      12.519   4.703  52.922  1.00  0.00     0.278 C 
ENDBRANCH  19  25
ENDBRANCH  17  18
ENDBRANCH  10  17
ENDBRANCH   1   9
BRANCH   5  27
ATOM     27  O   UNL     1      24.709   1.904  52.939  1.00  0.00    -0.491 OA
BRANCH  27  28
ATOM     28  C   UNL     1      25.435   1.590  51.738  1.00  0.00     0.231 C 
BRANCH  28  29
ATOM     29  C   UNL     1      26.813   2.226  51.855  1.00  0.00     0.057 C 
BRANCH  29  30
ATOM     30  C   UNL     1      27.478   2.080  53.229  1.00  0.00     0.087 C 
BRANCH  30  31
ATOM     31  N   UNL     1      28.573   1.123  53.408  1.00  0.00    -0.309 NA
ATOM     32  C   UNL     1      28.194  -0.266  53.176  1.00  0.00     0.104 C 
ATOM     33  C   UNL     1      29.325   1.288  54.643  1.00  0.00     0.104 C 
ENDBRANCH  30  31
ENDBRANCH  29  30
ENDBRANCH  28  29
ENDBRANCH  27  28
ENDBRANCH   5  27
TORSDOF 9
ENDMDL
MODEL 5
REMARK VINA RESULT:    -7.277      7.246     11.278
REMARK INTER + INTRA:         -12.201
REMARK INTER:                 -11.260
REMARK INTRA:                  -0.941
REMARK UNBOUND:                -1.096
REMARK SMILES COc1ccc(Cc2nc(-c3cc(Br)c(OCCCN(C)C)c(Br)c3)c[nH]c2=O)cc1Br
REMARK SMILES IDX 11 1 12 2 13 3 14 4 15 5 23 6 24 7 25 8 10 9 8 10 9 11 28 12
REMARK SMILES IDX 27 13 29 14 26 15 7 17 6 18 3 19 4 20 31 21 5 22 30 23 32 24
REMARK SMILES IDX 2 25 1 26 16 27 17 28 18 29 19 30 20 31 21 32 22 33
REMARK H PARENT 27 16
ROOT
ATOM      1  C   UNL     1      19.895  -0.664  53.260  1.00  0.00     0.004 A 
ATOM      2  C   UNL     1      20.866  -1.189  54.125  1.00  0.00     0.030 A 
ATOM      3  C   UNL     1      22.126  -0.589  54.230  1.00  0.00     0.061 A 
ATOM      4  Br  UNL     1      23.362  -1.336  55.464  1.00  0.00    -0.047 Br
ATOM      5  C   UNL     1      22.445   0.530  53.450  1.00  0.00     0.147 A 
ATOM      6  C   UNL     1      21.470   1.075  52.607  1.00  0.00     0.061 A 
ATOM      7  Br  UNL     1      21.790   2.649  51.588  1.00  0.00    -0.047 Br
ATOM      8  C   UNL     1      20.213   0.473  52.502  1.00  0.00     0.030 A 
ENDROOT
BRANCH   1   9
ATOM      9  C   UNL     1      18.566  -1.297  53.100  1.00  0.00     0.087 C 
ATOM     10  C   UNL     1      16.496  -1.207  52.109  1.00  0.00     0.110 C 
ATOM     11  N   UNL     1      17.671  -0.660  52.264  1.00  0.00    -0.245 NA
ATOM     12  C   UNL     1      16.085  -2.506  52.802  1.00  0.00     0.270 C 
ATOM     13  N   UNL     1      17.046  -3.021  53.637  1.00  0.00    -0.325 N 
ATOM     14  O   UNL     1      14.999  -3.025  52.605  1.00  0.00    -0.268 OA
ATOM     15  C   UNL     1      18.270  -2.422  53.778  1.00  0.00     0.115 C 
ATOM     16  H   UNL     1      16.818  -3.873  54.133  1.00  0.00     0.169 HD
BRANCH  10  17
ATOM     17  C   UNL     1      15.457  -0.544  51.240  1.00  0.00     0.097 C 
BRANCH  17  18
ATOM     18  C   UNL     1      14.768   0.594  51.952  1.00  0.00    -0.040 A 
ATOM     19  C   UNL     1      13.523   2.737  53.313  1.00  0.00     0.133 A 
ATOM     20  C   UNL     1      14.464   2.982  52.308  1.00  0.00     0.048 A 
ATOM     21  C   UNL     1      13.209   1.406  53.630  1.00  0.00     0.060 A 
ATOM     22  C   UNL     1      15.082   1.921  51.638  1.00  0.00     0.008 A 
ATOM     23  C   UNL     1      13.828   0.344  52.960  1.00  0.00     0.023 A 
ATOM     24  Br  UNL     1      11.948   0.979  54.987  1.00  0.00    -0.047 Br
BRANCH  19  25
ATOM     25  O   UNL     1      12.865   3.716  54.012  1.00  0.00    -0.496 OA
ATOM     26  C   UNL     1      12.331   4.807  53.273  1.00  0.00     0.278 C 
ENDBRANCH  19  25
ENDBRANCH  17  18
ENDBRANCH  10  17
ENDBRANCH   1   9
BRANCH   5  27
ATOM     27  O   UNL     1      23.674   1.129  53.570  1.00  0.00    -0.491 OA
BRANCH  27  28
ATOM     28  C   UNL     1      24.651   0.461  52.752  1.00  0.00     0.231 C 
BRANCH  28  29
ATOM     29  C   UNL     1      26.000   1.113  53.024  1.00  0.00     0.057 C 
BRANCH  29  30
ATOM     30  C   UNL     1      27.217   0.250  52.670  1.00  0.00     0.087 C 
BRANCH  30  31
ATOM     31  N   UNL     1      27.917  -0.486  53.725  1.00  0.00    -0.309 NA
ATOM     32  C   UNL     1      28.256   0.321  54.892  1.00  0.00     0.104 C 
ATOM     33  C   UNL     1      29.044  -1.282  53.263  1.00  0.00     0.104 C 
ENDBRANCH  30  31
ENDBRANCH  29  30
ENDBRANCH  28  29
ENDBRANCH  27  28
ENDBRANCH   5  27
TORSDOF 9
ENDMDL
MODEL 6
REMARK VINA RESULT:    -7.199      2.210      2.914
REMARK INTER + INTRA:         -12.082
REMARK INTER:                 -11.147
REMARK INTRA:                  -0.936
REMARK UNBOUND:                -1.096
REMARK SMILES COc1ccc(Cc2nc(-c3cc(Br)c(OCCCN(C)C)c(Br)c3)c[nH]c2=O)cc1Br
REMARK SMILES IDX 11 1 12 2 13 3 14 4 15 5 23 6 24 7 25 8 10 9 8 10 9 11 28 12
REMARK SMILES IDX 27 13 29 14 26 15 7 17 6 18 3 19 4 20 31 21 5 22 30 23 32 24
REMARK SMILES IDX 2 25 1 26 16 27 17 28 18 29 19 30 20 31 21 32 22 33
REMARK H PARENT 27 16
ROOT
ATOM      1  C   UNL     1      25.130   6.565  49.696  1.00  0.00     0.004 A 
ATOM      2  C   UNL     1      25.129   7.953  49.492  1.00  0.00     0.030 A 
ATOM      3  C   UNL     1      26.241   8.590  48.931  1.00  0.00     0.061 A 
ATOM      4  Br  UNL     1      26.134  10.465  48.643  1.00  0.00    -0.047 Br
ATOM      5  C   UNL     1      27.383   7.855  48.590  1.00  0.00     0.147 A 
ATOM      6  C   UNL     1      27.379   6.466  48.764  1.00  0.00     0.061 A 
ATOM      7  Br  UNL     1      28.850   5.382  48.237  1.00  0.00    -0.047 Br
ATOM      8  C   UNL     1      26.268   5.831  49.328  1.00  0.00     0.030 A 
ENDROOT
BRANCH   1   9
ATOM      9  C   UNL     1      23.984   5.865  50.322  1.00  0.00     0.087 C 
ATOM     10  C   UNL     1      22.829   3.895  50.565  1.00  0.00     0.110 C 
ATOM     11  N   UNL     1      23.833   4.527  50.019  1.00  0.00    -0.245 NA
ATOM     12  C   UNL     1      21.838   4.570  51.514  1.00  0.00     0.270 C 
ATOM     13  N   UNL     1      22.071   5.910  51.704  1.00  0.00    -0.325 N 
ATOM     14  O   UNL     1      20.937   3.949  52.051  1.00  0.00    -0.268 OA
ATOM     15  C   UNL     1      23.133   6.544  51.116  1.00  0.00     0.115 C 
ATOM     16  H   UNL     1      21.433   6.407  52.312  1.00  0.00     0.169 HD
BRANCH  10  17
ATOM     17  C   UNL     1      22.584   2.441  50.249  1.00  0.00     0.097 C 
BRANCH  17  18
ATOM     18  C   UNL     1      23.054   1.535  51.360  1.00  0.00    -0.040 A 
ATOM     19  C   UNL     1      23.903  -0.138  53.475  1.00  0.00     0.133 A 
ATOM     20  C   UNL     1      22.637  -0.299  52.903  1.00  0.00     0.048 A 
ATOM     21  C   UNL     1      24.742   0.870  52.976  1.00  0.00     0.060 A 
ATOM     22  C   UNL     1      22.217   0.531  51.859  1.00  0.00     0.008 A 
ATOM     23  C   UNL     1      24.322   1.702  51.932  1.00  0.00     0.023 A 
ATOM     24  Br  UNL     1      26.476   1.167  53.698  1.00  0.00    -0.047 Br
BRANCH  19  25
ATOM     25  O   UNL     1      24.396  -0.913  54.493  1.00  0.00    -0.496 OA
ATOM     26  C   UNL     1      23.491  -1.311  55.515  1.00  0.00     0.278 C 
ENDBRANCH  19  25
ENDBRANCH  17  18
ENDBRANCH  10  17
ENDBRANCH   1   9
BRANCH   5  27
ATOM     27  O   UNL     1      28.464   8.480  48.020  1.00  0.00    -0.491 OA
BRANCH  27  28
ATOM     28  C   UNL     1      29.423   8.859  49.022  1.00  0.00     0.231 C 
BRANCH  28  29
ATOM     29  C   UNL     1      30.811   8.609  48.448  1.00  0.00     0.057 C 
BRANCH  29  30
ATOM     30  C   UNL     1      31.832   8.049  49.446  1.00  0.00     0.087 C 
BRANCH  30  31
ATOM     31  N   UNL     1      32.980   7.282  48.957  1.00  0.00    -0.309 NA
ATOM     32  C   UNL     1      33.810   7.998  47.995  1.00  0.00     0.104 C 
ATOM     33  C   UNL     1      32.662   5.934  48.510  1.00  0.00     0.104 C 
ENDBRANCH  30  31
ENDBRANCH  29  30
ENDBRANCH  28  29
ENDBRANCH  27  28
ENDBRANCH   5  27
TORSDOF 9
ENDMDL
MODEL 7
REMARK VINA RESULT:    -7.158      1.340      2.325
REMARK INTER + INTRA:         -12.019
REMARK INTER:                 -10.985
REMARK INTRA:                  -1.034
REMARK UNBOUND:                -1.096
REMARK SMILES COc1ccc(Cc2nc(-c3cc(Br)c(OCCCN(C)C)c(Br)c3)c[nH]c2=O)cc1Br
REMARK SMILES IDX 11 1 12 2 13 3 14 4 15 5 23 6 24 7 25 8 10 9 8 10 9 11 28 12
REMARK SMILES IDX 27 13 29 14 26 15 7 17 6 18 3 19 4 20 31 21 5 22 30 23 32 24
REMARK SMILES IDX 2 25 1 26 16 27 17 28 18 29 19 30 20 31 21 32 22 33
REMARK H PARENT 27 16
ROOT
ATOM      1  C   UNL     1      25.687   6.021  49.146  1.00  0.00     0.004 A 
ATOM      2  C   UNL     1      26.944   5.485  48.829  1.00  0.00     0.030 A 
ATOM      3  C   UNL     1      27.987   6.318  48.405  1.00  0.00     0.061 A 
ATOM      4  Br  UNL     1      29.670   5.514  48.047  1.00  0.00    -0.047 Br
ATOM      5  C   UNL     1      27.781   7.696  48.264  1.00  0.00     0.147 A 
ATOM      6  C   UNL     1      26.537   8.239  48.606  1.00  0.00     0.061 A 
ATOM      7  Br  UNL     1      26.205  10.110  48.536  1.00  0.00    -0.047 Br
ATOM      8  C   UNL     1      25.496   7.406  49.027  1.00  0.00     0.030 A 
ENDROOT
BRANCH   1   9
ATOM      9  C   UNL     1      24.553   5.163  49.562  1.00  0.00     0.087 C 
ATOM     10  C   UNL     1      23.576   3.944  51.244  1.00  0.00     0.110 C 
ATOM     11  N   UNL     1      24.570   4.699  50.861  1.00  0.00    -0.245 NA
ATOM     12  C   UNL     1      22.414   3.568  50.324  1.00  0.00     0.270 C 
ATOM     13  N   UNL     1      22.533   4.057  49.047  1.00  0.00    -0.325 N 
ATOM     14  O   UNL     1      21.471   2.902  50.717  1.00  0.00    -0.268 OA
ATOM     15  C   UNL     1      23.589   4.847  48.676  1.00  0.00     0.115 C 
ATOM     16  H   UNL     1      21.797   3.823  48.393  1.00  0.00     0.169 HD
BRANCH  10  17
ATOM     17  C   UNL     1      23.549   3.372  52.639  1.00  0.00     0.097 C 
BRANCH  17  18
ATOM     18  C   UNL     1      24.534   2.241  52.805  1.00  0.00    -0.040 A 
ATOM     19  C   UNL     1      26.358   0.111  53.162  1.00  0.00     0.133 A 
ATOM     20  C   UNL     1      25.012  -0.143  52.880  1.00  0.00     0.048 A 
ATOM     21  C   UNL     1      26.783   1.444  53.263  1.00  0.00     0.060 A 
ATOM     22  C   UNL     1      24.110   0.912  52.706  1.00  0.00     0.008 A 
ATOM     23  C   UNL     1      25.880   2.500  53.091  1.00  0.00     0.023 A 
ATOM     24  Br  UNL     1      28.591   1.883  53.653  1.00  0.00    -0.047 Br
BRANCH  19  25
ATOM     25  O   UNL     1      27.308  -0.862  53.337  1.00  0.00    -0.496 OA
ATOM     26  C   UNL     1      27.118  -2.098  52.662  1.00  0.00     0.278 C 
ENDBRANCH  19  25
ENDBRANCH  17  18
ENDBRANCH  10  17
ENDBRANCH   1   9
BRANCH   5  27
ATOM     27  O   UNL     1      28.811   8.512  47.869  1.00  0.00    -0.491 OA
BRANCH  27  28
ATOM     28  C   UNL     1      29.543   8.999  49.007  1.00  0.00     0.231 C 
BRANCH  28  29
ATOM     29  C   UNL     1      30.888   9.507  48.504  1.00  0.00     0.057 C 
BRANCH  29  30
ATOM     30  C   UNL     1      31.442   8.768  47.281  1.00  0.00     0.087 C 
BRANCH  30  31
ATOM     31  N   UNL     1      32.709   8.041  47.384  1.00  0.00    -0.309 NA
ATOM     32  C   UNL     1      32.929   7.072  46.316  1.00  0.00     0.104 C 
ATOM     33  C   UNL     1      32.981   7.479  48.698  1.00  0.00     0.104 C 
ENDBRANCH  30  31
ENDBRANCH  29  30
ENDBRANCH  28  29
ENDBRANCH  27  28
ENDBRANCH   5  27
TORSDOF 9
ENDMDL
MODEL 8
REMARK VINA RESULT:    -7.113      6.413     11.226
REMARK INTER + INTRA:         -11.951
REMARK INTER:                 -11.143
REMARK INTRA:                  -0.808
REMARK UNBOUND:                -1.096
REMARK SMILES COc1ccc(Cc2nc(-c3cc(Br)c(OCCCN(C)C)c(Br)c3)c[nH]c2=O)cc1Br
REMARK SMILES IDX 11 1 12 2 13 3 14 4 15 5 23 6 24 7 25 8 10 9 8 10 9 11 28 12
REMARK SMILES IDX 27 13 29 14 26 15 7 17 6 18 3 19 4 20 31 21 5 22 30 23 32 24
REMARK SMILES IDX 2 25 1 26 16 27 17 28 18 29 19 30 20 31 21 32 22 33
REMARK H PARENT 27 16
ROOT
ATOM      1  C   UNL     1      19.548  -0.049  52.775  1.00  0.00     0.004 A 
ATOM      2  C   UNL     1      18.418  -0.874  52.871  1.00  0.00     0.030 A 
ATOM      3  C   UNL     1      17.212  -0.504  52.264  1.00  0.00     0.061 A 
ATOM      4  Br  UNL     1      15.747  -1.706  52.401  1.00  0.00    -0.047 Br
ATOM      5  C   UNL     1      17.109   0.711  51.576  1.00  0.00     0.147 A 
ATOM      6  C   UNL     1      18.241   1.524  51.452  1.00  0.00     0.061 A 
ATOM      7  Br  UNL     1      18.212   3.141  50.452  1.00  0.00    -0.047 Br
ATOM      8  C   UNL     1      19.444   1.154  52.061  1.00  0.00     0.030 A 
ENDROOT
BRANCH   1   9
ATOM      9  C   UNL     1      20.827  -0.395  53.437  1.00  0.00     0.087 C 
ATOM     10  C   UNL     1      23.085  -0.006  53.585  1.00  0.00     0.110 C 
ATOM     11  N   UNL     1      21.950   0.285  53.010  1.00  0.00    -0.245 NA
ATOM     12  C   UNL     1      23.212  -1.048  54.697  1.00  0.00     0.270 C 
ATOM     13  N   UNL     1      22.034  -1.682  55.004  1.00  0.00    -0.325 N 
ATOM     14  O   UNL     1      24.274  -1.269  55.254  1.00  0.00    -0.268 OA
ATOM     15  C   UNL     1      20.859  -1.354  54.381  1.00  0.00     0.115 C 
ATOM     16  H   UNL     1      22.066  -2.393  55.724  1.00  0.00     0.169 HD
BRANCH  10  17
ATOM     17  C   UNL     1      24.358   0.671  53.143  1.00  0.00     0.097 C 
BRANCH  17  18
ATOM     18  C   UNL     1      24.087   1.995  52.469  1.00  0.00    -0.040 A 
ATOM     19  C   UNL     1      23.532   4.476  51.233  1.00  0.00     0.133 A 
ATOM     20  C   UNL     1      23.816   4.409  52.600  1.00  0.00     0.048 A 
ATOM     21  C   UNL     1      23.531   3.286  50.488  1.00  0.00     0.060 A 
ATOM     22  C   UNL     1      24.087   3.180  53.212  1.00  0.00     0.008 A 
ATOM     23  C   UNL     1      23.801   2.056  51.100  1.00  0.00     0.023 A 
ATOM     24  Br  UNL     1      23.149   3.281  48.626  1.00  0.00    -0.047 Br
BRANCH  19  25
ATOM     25  O   UNL     1      23.266   5.637  50.554  1.00  0.00    -0.496 OA
ATOM     26  C   UNL     1      22.122   6.383  50.949  1.00  0.00     0.278 C 
ENDBRANCH  19  25
ENDBRANCH  17  18
ENDBRANCH  10  17
ENDBRANCH   1   9
BRANCH   5  27
ATOM     27  O   UNL     1      15.931   1.061  50.964  1.00  0.00    -0.491 OA
BRANCH  27  28
ATOM     28  C   UNL     1      15.242   2.071  51.721  1.00  0.00     0.231 C 
BRANCH  28  29
ATOM     29  C   UNL     1      13.787   1.638  51.846  1.00  0.00     0.057 C 
BRANCH  29  30
ATOM     30  C   UNL     1      13.074   2.126  53.112  1.00  0.00     0.087 C 
BRANCH  30  31
ATOM     31  N   UNL     1      12.973   3.563  53.381  1.00  0.00    -0.309 NA
ATOM     32  C   UNL     1      12.189   3.894  54.565  1.00  0.00     0.104 C 
ATOM     33  C   UNL     1      12.595   4.369  52.230  1.00  0.00     0.104 C 
ENDBRANCH  30  31
ENDBRANCH  29  30
ENDBRANCH  28  29
ENDBRANCH  27  28
ENDBRANCH   5  27
TORSDOF 9
ENDMDL
MODEL 9
REMARK VINA RESULT:    -6.840      3.121      8.567
REMARK INTER + INTRA:         -11.535
REMARK INTER:                 -10.326
REMARK INTRA:                  -1.209
REMARK UNBOUND:                -1.096
REMARK SMILES COc1ccc(Cc2nc(-c3cc(Br)c(OCCCN(C)C)c(Br)c3)c[nH]c2=O)cc1Br
REMARK SMILES IDX 11 1 12 2 13 3 14 4 15 5 23 6 24 7 25 8 10 9 8 10 9 11 28 12
REMARK SMILES IDX 27 13 29 14 26 15 7 17 6 18 3 19 4 20 31 21 5 22 30 23 32 24
REMARK SMILES IDX 2 25 1 26 16 27 17 28 18 29 19 30 20 31 21 32 22 33
REMARK H PARENT 27 16
ROOT
ATOM      1  C   UNL     1      26.953   7.106  48.100  1.00  0.00     0.004 A 
ATOM      2  C   UNL     1      27.182   5.840  48.658  1.00  0.00     0.030 A 
ATOM      3  C   UNL     1      26.112   5.053  49.101  1.00  0.00     0.061 A 
ATOM      4  Br  UNL     1      26.508   3.331  49.797  1.00  0.00    -0.047 Br
ATOM      5  C   UNL     1      24.798   5.532  49.019  1.00  0.00     0.147 A 
ATOM      6  C   UNL     1      24.562   6.783  48.436  1.00  0.00     0.061 A 
ATOM      7  Br  UNL     1      22.803   7.464  48.197  1.00  0.00    -0.047 Br
ATOM      8  C   UNL     1      25.632   7.568  47.996  1.00  0.00     0.030 A 
ENDROOT
BRANCH   1   9
ATOM      9  C   UNL     1      28.066   7.977  47.656  1.00  0.00     0.087 C 
ATOM     10  C   UNL     1      30.329   8.362  47.656  1.00  0.00     0.110 C 
ATOM     11  N   UNL     1      29.337   7.606  48.041  1.00  0.00    -0.245 NA
ATOM     12  C   UNL     1      30.137   9.616  46.803  1.00  0.00     0.270 C 
ATOM     13  N   UNL     1      28.824   9.901  46.518  1.00  0.00    -0.325 N 
ATOM     14  O   UNL     1      31.082  10.281  46.413  1.00  0.00    -0.268 OA
ATOM     15  C   UNL     1      27.806   9.088  46.939  1.00  0.00     0.115 C 
ATOM     16  H   UNL     1      28.641  10.731  45.969  1.00  0.00     0.169 HD
BRANCH  10  17
ATOM     17  C   UNL     1      31.741   8.036  48.073  1.00  0.00     0.097 C 
BRANCH  17  18
ATOM     18  C   UNL     1      32.144   6.642  47.658  1.00  0.00    -0.040 A 
ATOM     19  C   UNL     1      32.947   4.038  46.905  1.00  0.00     0.133 A 
ATOM     20  C   UNL     1      32.611   4.324  48.232  1.00  0.00     0.048 A 
ATOM     21  C   UNL     1      32.876   5.070  45.957  1.00  0.00     0.060 A 
ATOM     22  C   UNL     1      32.217   5.614  48.604  1.00  0.00     0.008 A 
ATOM     23  C   UNL     1      32.483   6.360  46.328  1.00  0.00     0.023 A 
ATOM     24  Br  UNL     1      33.322   4.773  44.132  1.00  0.00    -0.047 Br
BRANCH  19  25
ATOM     25  O   UNL     1      33.333   2.802  46.455  1.00  0.00    -0.496 OA
ATOM     26  C   UNL     1      32.560   1.680  46.863  1.00  0.00     0.278 C 
ENDBRANCH  19  25
ENDBRANCH  17  18
ENDBRANCH  10  17
ENDBRANCH   1   9
BRANCH   5  27
ATOM     27  O   UNL     1      23.749   4.750  49.434  1.00  0.00    -0.491 OA
BRANCH  27  28
ATOM     28  C   UNL     1      23.402   5.045  50.798  1.00  0.00     0.231 C 
BRANCH  28  29
ATOM     29  C   UNL     1      23.105   3.722  51.492  1.00  0.00     0.057 C 
BRANCH  29  30
ATOM     30  C   UNL     1      23.885   3.483  52.790  1.00  0.00     0.087 C 
BRANCH  30  31
ATOM     31  N   UNL     1      24.421   2.151  53.081  1.00  0.00    -0.309 NA
ATOM     32  C   UNL     1      25.812   2.151  53.519  1.00  0.00     0.104 C 
ATOM     33  C   UNL     1      24.171   1.158  52.048  1.00  0.00     0.104 C 
ENDBRANCH  30  31
ENDBRANCH  29  30
ENDBRANCH  28  29
ENDBRANCH  27  28
ENDBRANCH   5  27
TORSDOF 9
ENDMDL
