MODEL 1
REMARK VINA RESULT:    -9.743      0.000      0.000
REMARK INTER + INTRA:         -17.870
REMARK INTER:                 -16.578
REMARK INTRA:                  -1.292
REMARK UNBOUND:                -1.292
REMARK SMILES CC(C)(C)c1ccc(OC[C@H](Cn2ccnc2[N+](=O)[O-])OC(=O)c2ccc(NC=C3C(=O)C=CC3=O)cc2)cc1
REMARK SMILES IDX 11 1 10 2 9 3 8 4 5 5 6 6 40 7 7 8 39 9 2 10 1 11 3 12 4 13
REMARK SMILES IDX 12 14 13 15 14 16 17 17 15 18 16 19 18 20 19 21 20 22 21 23
REMARK SMILES IDX 22 24 23 25 24 26 25 27 38 28 26 29 37 30 27 31 28 32 29 34
REMARK SMILES IDX 30 35 31 36 35 37 32 38 33 39 34 40 36 41
REMARK H PARENT 28 33
ROOT
ATOM      1  C   UNL     1      25.435   1.638  52.475  1.00  0.00     0.248 C 
ENDROOT
BRANCH   1   2
ATOM      2  C   UNL     1      24.837   2.887  51.804  1.00  0.00     0.278 C 
BRANCH   2   3
ATOM      3  O   UNL     1      25.064   2.903  50.396  1.00  0.00    -0.490 OA
BRANCH   3   4
ATOM      4  C   UNL     1      25.604   4.024  49.833  1.00  0.00     0.119 A 
ATOM      5  C   UNL     1      26.990   6.196  48.626  1.00  0.00    -0.042 A 
ATOM      6  C   UNL     1      25.687   6.343  49.127  1.00  0.00     0.008 A 
ATOM      7  C   UNL     1      27.579   4.924  48.744  1.00  0.00     0.008 A 
ATOM      8  C   UNL     1      25.002   5.272  49.722  1.00  0.00     0.047 A 
ATOM      9  C   UNL     1      26.896   3.857  49.337  1.00  0.00     0.047 A 
BRANCH   5  10
ATOM     10  C   UNL     1      27.765   7.350  47.968  1.00  0.00    -0.013 C 
ATOM     11  C   UNL     1      29.135   6.933  47.388  1.00  0.00     0.016 C 
ATOM     12  C   UNL     1      26.935   7.934  46.804  1.00  0.00     0.016 C 
ATOM     13  C   UNL     1      28.030   8.460  49.009  1.00  0.00     0.016 C 
ENDBRANCH   5  10
ENDBRANCH   3   4
ENDBRANCH   2   3
ENDBRANCH   1   2
BRANCH   1  14
ATOM     14  C   UNL     1      26.831   1.266  51.946  1.00  0.00     0.254 C 
BRANCH  14  15
ATOM     15  N   UNL     1      27.889   1.293  52.938  1.00  0.00    -0.225 N 
ATOM     16  C   UNL     1      28.346   2.446  53.537  1.00  0.00     0.204 A 
ATOM     17  C   UNL     1      28.628   0.267  53.465  1.00  0.00     0.434 A 
ATOM     18  C   UNL     1      29.375   2.054  54.361  1.00  0.00     0.245 A 
ATOM     19  N   UNL     1      29.551   0.698  54.305  1.00  0.00    -0.074 NA
BRANCH  17  20
ATOM     20  N   UNL     1      28.455  -1.125  53.153  1.00  0.00    -0.047 N 
ATOM     21  O   UNL     1      29.436  -1.868  53.291  1.00  0.00    -0.390 OA
ATOM     22  O   UNL     1      27.331  -1.483  52.774  1.00  0.00    -0.390 OA
ENDBRANCH  17  20
ENDBRANCH  14  15
ENDBRANCH   1  14
BRANCH   1  23
ATOM     23  O   UNL     1      24.537   0.517  52.312  1.00  0.00    -0.452 OA
BRANCH  23  24
ATOM     24  C   UNL     1      24.167  -0.094  53.470  1.00  0.00     0.338 C 
ATOM     25  O   UNL     1      24.923  -0.402  54.377  1.00  0.00    -0.246 OA
BRANCH  24  26
ATOM     26  C   UNL     1      22.710  -0.368  53.488  1.00  0.00     0.060 A 
ATOM     27  C   UNL     1      21.812   0.301  52.652  1.00  0.00     0.018 A 
ATOM     28  C   UNL     1      22.223  -1.312  54.394  1.00  0.00     0.018 A 
ATOM     29  C   UNL     1      20.442   0.007  52.708  1.00  0.00     0.027 A 
ATOM     30  C   UNL     1      20.854  -1.598  54.445  1.00  0.00     0.027 A 
ATOM     31  C   UNL     1      19.941  -0.950  53.598  1.00  0.00     0.038 A 
BRANCH  31  32
ATOM     32  N   UNL     1      18.580  -1.277  53.707  1.00  0.00    -0.361 N 
ATOM     33  H   UNL     1      17.947  -0.484  53.840  1.00  0.00     0.166 HD
BRANCH  32  34
ATOM     34  C   UNL     1      17.977  -2.510  53.738  1.00  0.00     0.099 C 
ATOM     35  C   UNL     1      16.817  -2.848  53.166  1.00  0.00     0.085 C 
ATOM     36  C   UNL     1      16.192  -4.176  53.206  1.00  0.00     0.191 C 
ATOM     37  C   UNL     1      15.934  -1.971  52.387  1.00  0.00     0.191 C 
ATOM     38  O   UNL     1      16.600  -5.183  53.745  1.00  0.00    -0.289 OA
ATOM     39  C   UNL     1      14.935  -4.055  52.442  1.00  0.00     0.057 C 
ATOM     40  C   UNL     1      14.789  -2.805  51.978  1.00  0.00     0.057 C 
ATOM     41  O   UNL     1      16.094  -0.796  52.124  1.00  0.00    -0.289 OA
ENDBRANCH  32  34
ENDBRANCH  31  32
ENDBRANCH  24  26
ENDBRANCH  23  24
ENDBRANCH   1  23
TORSDOF 12
ENDMDL
MODEL 2
REMARK VINA RESULT:    -9.410      3.700      9.324
REMARK INTER + INTRA:         -17.303
REMARK INTER:                 -13.186
REMARK INTRA:                  -4.117
REMARK UNBOUND:                -1.292
REMARK SMILES CC(C)(C)c1ccc(OC[C@H](Cn2ccnc2[N+](=O)[O-])OC(=O)c2ccc(NC=C3C(=O)C=CC3=O)cc2)cc1
REMARK SMILES IDX 11 1 10 2 9 3 8 4 5 5 6 6 40 7 7 8 39 9 2 10 1 11 3 12 4 13
REMARK SMILES IDX 12 14 13 15 14 16 17 17 15 18 16 19 18 20 19 21 20 22 21 23
REMARK SMILES IDX 22 24 23 25 24 26 25 27 38 28 26 29 37 30 27 31 28 32 29 34
REMARK SMILES IDX 30 35 31 36 35 37 32 38 33 39 34 40 36 41
REMARK H PARENT 28 33
ROOT
ATOM      1  C   UNL     1      22.737   4.899  48.647  1.00  0.00     0.248 C 
ENDROOT
BRANCH   1   2
ATOM      2  C   UNL     1      22.188   3.559  48.126  1.00  0.00     0.278 C 
BRANCH   2   3
ATOM      3  O   UNL     1      20.915   3.244  48.686  1.00  0.00    -0.490 OA
BRANCH   3   4
ATOM      4  C   UNL     1      20.870   2.512  49.838  1.00  0.00     0.119 A 
ATOM      5  C   UNL     1      20.895   0.754  52.074  1.00  0.00    -0.042 A 
ATOM      6  C   UNL     1      20.349   2.044  52.161  1.00  0.00     0.008 A 
ATOM      7  C   UNL     1      21.433   0.370  50.833  1.00  0.00     0.008 A 
ATOM      8  C   UNL     1      20.338   2.913  51.059  1.00  0.00     0.047 A 
ATOM      9  C   UNL     1      21.420   1.236  49.735  1.00  0.00     0.047 A 
BRANCH   5  10
ATOM     10  C   UNL     1      20.923  -0.220  53.265  1.00  0.00    -0.013 C 
ATOM     11  C   UNL     1      19.642  -1.075  53.405  1.00  0.00     0.016 C 
ATOM     12  C   UNL     1      22.108  -1.197  53.106  1.00  0.00     0.016 C 
ATOM     13  C   UNL     1      21.089   0.570  54.581  1.00  0.00     0.016 C 
ENDBRANCH   5  10
ENDBRANCH   3   4
ENDBRANCH   2   3
ENDBRANCH   1   2
BRANCH   1  14
ATOM     14  C   UNL     1      23.070   5.902  47.529  1.00  0.00     0.254 C 
BRANCH  14  15
ATOM     15  N   UNL     1      23.110   7.291  47.945  1.00  0.00    -0.225 N 
ATOM     16  C   UNL     1      22.012   8.123  47.941  1.00  0.00     0.204 A 
ATOM     17  C   UNL     1      24.163   8.044  48.395  1.00  0.00     0.434 A 
ATOM     18  C   UNL     1      22.477   9.353  48.346  1.00  0.00     0.245 A 
ATOM     19  N   UNL     1      23.818   9.299  48.617  1.00  0.00    -0.074 NA
BRANCH  17  20
ATOM     20  N   UNL     1      25.501   7.562  48.599  1.00  0.00    -0.047 N 
ATOM     21  O   UNL     1      26.199   7.370  47.594  1.00  0.00    -0.390 OA
ATOM     22  O   UNL     1      25.863   7.380  49.770  1.00  0.00    -0.390 OA
ENDBRANCH  17  20
ENDBRANCH  14  15
ENDBRANCH   1  14
BRANCH   1  23
ATOM     23  O   UNL     1      23.910   4.666  49.459  1.00  0.00    -0.452 OA
BRANCH  23  24
ATOM     24  C   UNL     1      23.705   4.755  50.801  1.00  0.00     0.338 C 
ATOM     25  O   UNL     1      23.244   5.725  51.381  1.00  0.00    -0.246 OA
BRANCH  24  26
ATOM     26  C   UNL     1      24.140   3.516  51.491  1.00  0.00     0.060 A 
ATOM     27  C   UNL     1      24.805   2.483  50.826  1.00  0.00     0.018 A 
ATOM     28  C   UNL     1      23.847   3.375  52.849  1.00  0.00     0.018 A 
ATOM     29  C   UNL     1      25.195   1.331  51.523  1.00  0.00     0.027 A 
ATOM     30  C   UNL     1      24.237   2.221  53.536  1.00  0.00     0.027 A 
ATOM     31  C   UNL     1      24.925   1.182  52.889  1.00  0.00     0.038 A 
BRANCH  31  32
ATOM     32  N   UNL     1      25.279   0.047  53.636  1.00  0.00    -0.361 N 
ATOM     33  H   UNL     1      24.837  -0.029  54.555  1.00  0.00     0.166 HD
BRANCH  32  34
ATOM     34  C   UNL     1      26.188  -0.940  53.347  1.00  0.00     0.099 C 
ATOM     35  C   UNL     1      27.519  -0.859  53.452  1.00  0.00     0.085 C 
ATOM     36  C   UNL     1      28.474  -1.930  53.144  1.00  0.00     0.191 C 
ATOM     37  C   UNL     1      28.294   0.308  53.892  1.00  0.00     0.191 C 
ATOM     38  O   UNL     1      28.242  -3.054  52.752  1.00  0.00    -0.289 OA
ATOM     39  C   UNL     1      29.812  -1.367  53.409  1.00  0.00     0.057 C 
ATOM     40  C   UNL     1      29.710  -0.099  53.833  1.00  0.00     0.057 C 
ATOM     41  O   UNL     1      27.875   1.395  54.237  1.00  0.00    -0.289 OA
ENDBRANCH  32  34
ENDBRANCH  31  32
ENDBRANCH  24  26
ENDBRANCH  23  24
ENDBRANCH   1  23
TORSDOF 12
ENDMDL
MODEL 3
REMARK VINA RESULT:    -9.219      3.523      5.482
REMARK INTER + INTRA:         -16.978
REMARK INTER:                 -14.097
REMARK INTRA:                  -2.881
REMARK UNBOUND:                -1.292
REMARK SMILES CC(C)(C)c1ccc(OC[C@H](Cn2ccnc2[N+](=O)[O-])OC(=O)c2ccc(NC=C3C(=O)C=CC3=O)cc2)cc1
REMARK SMILES IDX 11 1 10 2 9 3 8 4 5 5 6 6 40 7 7 8 39 9 2 10 1 11 3 12 4 13
REMARK SMILES IDX 12 14 13 15 14 16 17 17 15 18 16 19 18 20 19 21 20 22 21 23
REMARK SMILES IDX 22 24 23 25 24 26 25 27 38 28 26 29 37 30 27 31 28 32 29 34
REMARK SMILES IDX 30 35 31 36 35 37 32 38 33 39 34 40 36 41
REMARK H PARENT 28 33
ROOT
ATOM      1  C   UNL     1      25.248   0.714  53.283  1.00  0.00     0.248 C 
ENDROOT
BRANCH   1   2
ATOM      2  C   UNL     1      25.799   1.126  51.907  1.00  0.00     0.278 C 
BRANCH   2   3
ATOM      3  O   UNL     1      24.895   1.969  51.195  1.00  0.00    -0.490 OA
BRANCH   3   4
ATOM      4  C   UNL     1      25.387   3.080  50.574  1.00  0.00     0.119 A 
ATOM      5  C   UNL     1      26.161   5.543  49.378  1.00  0.00    -0.042 A 
ATOM      6  C   UNL     1      26.917   4.372  49.204  1.00  0.00     0.008 A 
ATOM      7  C   UNL     1      25.006   5.444  50.174  1.00  0.00     0.008 A 
ATOM      8  C   UNL     1      26.537   3.157  49.795  1.00  0.00     0.047 A 
ATOM      9  C   UNL     1      24.627   4.233  50.762  1.00  0.00     0.047 A 
BRANCH   5  10
ATOM     10  C   UNL     1      26.552   6.889  48.745  1.00  0.00    -0.013 C 
ATOM     11  C   UNL     1      27.954   6.890  48.094  1.00  0.00     0.016 C 
ATOM     12  C   UNL     1      25.536   7.257  47.641  1.00  0.00     0.016 C 
ATOM     13  C   UNL     1      26.551   7.993  49.825  1.00  0.00     0.016 C 
ENDBRANCH   5  10
ENDBRANCH   3   4
ENDBRANCH   2   3
ENDBRANCH   1   2
BRANCH   1  14
ATOM     14  C   UNL     1      26.335   0.583  54.365  1.00  0.00     0.254 C 
BRANCH  14  15
ATOM     15  N   UNL     1      27.586   0.005  53.909  1.00  0.00    -0.225 N 
ATOM     16  C   UNL     1      27.716  -1.301  53.488  1.00  0.00     0.204 A 
ATOM     17  C   UNL     1      28.830   0.569  53.805  1.00  0.00     0.434 A 
ATOM     18  C   UNL     1      29.051  -1.465  53.199  1.00  0.00     0.245 A 
ATOM     19  N   UNL     1      29.739  -0.301  53.407  1.00  0.00    -0.074 NA
BRANCH  17  20
ATOM     20  N   UNL     1      29.146   1.939  54.100  1.00  0.00    -0.047 N 
ATOM     21  O   UNL     1      28.673   2.808  53.356  1.00  0.00    -0.390 OA
ATOM     22  O   UNL     1      29.866   2.153  55.086  1.00  0.00    -0.390 OA
ENDBRANCH  17  20
ENDBRANCH  14  15
ENDBRANCH   1  14
BRANCH   1  23
ATOM     23  O   UNL     1      24.522  -0.529  53.169  1.00  0.00    -0.452 OA
BRANCH  23  24
ATOM     24  C   UNL     1      23.238  -0.487  53.617  1.00  0.00     0.338 C 
ATOM     25  O   UNL     1      22.819  -1.054  54.613  1.00  0.00    -0.246 OA
BRANCH  24  26
ATOM     26  C   UNL     1      22.385   0.330  52.719  1.00  0.00     0.060 A 
ATOM     27  C   UNL     1      21.942  -0.136  51.479  1.00  0.00     0.018 A 
ATOM     28  C   UNL     1      22.038   1.620  53.126  1.00  0.00     0.018 A 
ATOM     29  C   UNL     1      21.138   0.674  50.665  1.00  0.00     0.027 A 
ATOM     30  C   UNL     1      21.237   2.424  52.307  1.00  0.00     0.027 A 
ATOM     31  C   UNL     1      20.766   1.963  51.067  1.00  0.00     0.038 A 
BRANCH  31  32
ATOM     32  N   UNL     1      19.974   2.824  50.290  1.00  0.00    -0.361 N 
ATOM     33  H   UNL     1      19.232   2.372  49.752  1.00  0.00     0.166 HD
BRANCH  32  34
ATOM     34  C   UNL     1      20.095   4.176  50.087  1.00  0.00     0.099 C 
ATOM     35  C   UNL     1      20.879   4.785  49.191  1.00  0.00     0.085 C 
ATOM     36  C   UNL     1      20.988   6.234  48.986  1.00  0.00     0.191 C 
ATOM     37  C   UNL     1      21.785   4.136  48.235  1.00  0.00     0.191 C 
ATOM     38  O   UNL     1      20.403   7.122  49.571  1.00  0.00    -0.289 OA
ATOM     39  C   UNL     1      21.971   6.416  47.900  1.00  0.00     0.057 C 
ATOM     40  C   UNL     1      22.423   5.227  47.475  1.00  0.00     0.057 C 
ATOM     41  O   UNL     1      21.984   2.948  48.085  1.00  0.00    -0.289 OA
ENDBRANCH  32  34
ENDBRANCH  31  32
ENDBRANCH  24  26
ENDBRANCH  23  24
ENDBRANCH   1  23
TORSDOF 12
ENDMDL
MODEL 4
REMARK VINA RESULT:    -9.212      4.160      9.880
REMARK INTER + INTRA:         -16.966
REMARK INTER:                 -13.088
REMARK INTRA:                  -3.878
REMARK UNBOUND:                -1.292
REMARK SMILES CC(C)(C)c1ccc(OC[C@H](Cn2ccnc2[N+](=O)[O-])OC(=O)c2ccc(NC=C3C(=O)C=CC3=O)cc2)cc1
REMARK SMILES IDX 11 1 10 2 9 3 8 4 5 5 6 6 40 7 7 8 39 9 2 10 1 11 3 12 4 13
REMARK SMILES IDX 12 14 13 15 14 16 17 17 15 18 16 19 18 20 19 21 20 22 21 23
REMARK SMILES IDX 22 24 23 25 24 26 25 27 38 28 26 29 37 30 27 31 28 32 29 34
REMARK SMILES IDX 30 35 31 36 35 37 32 38 33 39 34 40 36 41
REMARK H PARENT 28 33
ROOT
ATOM      1  C   UNL     1      20.197   5.446  49.354  1.00  0.00     0.248 C 
ENDROOT
BRANCH   1   2
ATOM      2  C   UNL     1      19.503   4.129  49.739  1.00  0.00     0.278 C 
BRANCH   2   3
ATOM      3  O   UNL     1      20.263   2.986  49.352  1.00  0.00    -0.490 OA
BRANCH   3   4
ATOM      4  C   UNL     1      20.675   2.115  50.320  1.00  0.00     0.119 A 
ATOM      5  C   UNL     1      21.377   0.478  52.538  1.00  0.00    -0.042 A 
ATOM      6  C   UNL     1      21.885   0.231  51.252  1.00  0.00     0.008 A 
ATOM      7  C   UNL     1      20.502   1.569  52.679  1.00  0.00     0.008 A 
ATOM      8  C   UNL     1      21.538   1.037  50.157  1.00  0.00     0.047 A 
ATOM      9  C   UNL     1      20.157   2.373  51.588  1.00  0.00     0.047 A 
BRANCH   5  10
ATOM     10  C   UNL     1      21.738  -0.388  53.756  1.00  0.00    -0.013 C 
ATOM     11  C   UNL     1      21.244  -1.850  53.654  1.00  0.00     0.016 C 
ATOM     12  C   UNL     1      23.273  -0.436  53.921  1.00  0.00     0.016 C 
ATOM     13  C   UNL     1      21.109   0.217  55.031  1.00  0.00     0.016 C 
ENDBRANCH   5  10
ENDBRANCH   3   4
ENDBRANCH   2   3
ENDBRANCH   1   2
BRANCH   1  14
ATOM     14  C   UNL     1      19.751   5.999  47.989  1.00  0.00     0.254 C 
BRANCH  14  15
ATOM     15  N   UNL     1      20.828   6.262  47.052  1.00  0.00    -0.225 N 
ATOM     16  C   UNL     1      21.407   7.500  46.881  1.00  0.00     0.204 A 
ATOM     17  C   UNL     1      21.465   5.415  46.185  1.00  0.00     0.434 A 
ATOM     18  C   UNL     1      22.335   7.340  45.878  1.00  0.00     0.245 A 
ATOM     19  N   UNL     1      22.359   6.043  45.443  1.00  0.00    -0.074 NA
BRANCH  17  20
ATOM     20  N   UNL     1      21.208   4.007  46.059  1.00  0.00    -0.047 N 
ATOM     21  O   UNL     1      22.001   3.230  46.606  1.00  0.00    -0.390 OA
ATOM     22  O   UNL     1      20.202   3.672  45.418  1.00  0.00    -0.390 OA
ENDBRANCH  17  20
ENDBRANCH  14  15
ENDBRANCH   1  14
BRANCH   1  23
ATOM     23  O   UNL     1      21.631   5.266  49.361  1.00  0.00    -0.452 OA
BRANCH  23  24
ATOM     24  C   UNL     1      22.254   5.669  50.502  1.00  0.00     0.338 C 
ATOM     25  O   UNL     1      22.145   6.771  51.013  1.00  0.00    -0.246 OA
BRANCH  24  26
ATOM     26  C   UNL     1      23.117   4.593  51.048  1.00  0.00     0.060 A 
ATOM     27  C   UNL     1      23.143   4.272  52.407  1.00  0.00     0.018 A 
ATOM     28  C   UNL     1      23.950   3.899  50.168  1.00  0.00     0.018 A 
ATOM     29  C   UNL     1      23.977   3.248  52.876  1.00  0.00     0.027 A 
ATOM     30  C   UNL     1      24.781   2.879  50.644  1.00  0.00     0.027 A 
ATOM     31  C   UNL     1      24.804   2.530  52.004  1.00  0.00     0.038 A 
BRANCH  31  32
ATOM     32  N   UNL     1      25.669   1.503  52.415  1.00  0.00    -0.361 N 
ATOM     33  H   UNL     1      25.334   0.552  52.246  1.00  0.00     0.166 HD
BRANCH  32  34
ATOM     34  C   UNL     1      26.867   1.584  53.081  1.00  0.00     0.099 C 
ATOM     35  C   UNL     1      27.745   0.594  53.273  1.00  0.00     0.085 C 
ATOM     36  C   UNL     1      29.025   0.703  53.983  1.00  0.00     0.191 C 
ATOM     37  C   UNL     1      27.613  -0.796  52.817  1.00  0.00     0.191 C 
ATOM     38  O   UNL     1      29.512   1.683  54.508  1.00  0.00    -0.289 OA
ATOM     39  C   UNL     1      29.631  -0.642  53.935  1.00  0.00     0.057 C 
ATOM     40  C   UNL     1      28.830  -1.491  53.275  1.00  0.00     0.057 C 
ATOM     41  O   UNL     1      26.696  -1.292  52.193  1.00  0.00    -0.289 OA
ENDBRANCH  32  34
ENDBRANCH  31  32
ENDBRANCH  24  26
ENDBRANCH  23  24
ENDBRANCH   1  23
TORSDOF 12
ENDMDL
MODEL 5
REMARK VINA RESULT:    -9.164      4.434      9.987
REMARK INTER + INTRA:         -16.885
REMARK INTER:                 -13.073
REMARK INTRA:                  -3.812
REMARK UNBOUND:                -1.292
REMARK SMILES CC(C)(C)c1ccc(OC[C@H](Cn2ccnc2[N+](=O)[O-])OC(=O)c2ccc(NC=C3C(=O)C=CC3=O)cc2)cc1
REMARK SMILES IDX 11 1 10 2 9 3 8 4 5 5 6 6 40 7 7 8 39 9 2 10 1 11 3 12 4 13
REMARK SMILES IDX 12 14 13 15 14 16 17 17 15 18 16 19 18 20 19 21 20 22 21 23
REMARK SMILES IDX 22 24 23 25 24 26 25 27 38 28 26 29 37 30 27 31 28 32 29 34
REMARK SMILES IDX 30 35 31 36 35 37 32 38 33 39 34 40 36 41
REMARK H PARENT 28 33
ROOT
ATOM      1  C   UNL     1      21.213   5.720  49.725  1.00  0.00     0.248 C 
ENDROOT
BRANCH   1   2
ATOM      2  C   UNL     1      20.030   4.853  50.190  1.00  0.00     0.278 C 
BRANCH   2   3
ATOM      3  O   UNL     1      20.191   3.483  49.825  1.00  0.00    -0.490 OA
BRANCH   3   4
ATOM      4  C   UNL     1      20.414   2.566  50.812  1.00  0.00     0.119 A 
ATOM      5  C   UNL     1      20.910   0.446  52.643  1.00  0.00    -0.042 A 
ATOM      6  C   UNL     1      20.583   1.738  53.086  1.00  0.00     0.008 A 
ATOM      7  C   UNL     1      20.986   0.248  51.253  1.00  0.00     0.008 A 
ATOM      8  C   UNL     1      20.339   2.784  52.183  1.00  0.00     0.047 A 
ATOM      9  C   UNL     1      20.742   1.291  50.354  1.00  0.00     0.047 A 
BRANCH   5  10
ATOM     10  C   UNL     1      21.183  -0.721  53.607  1.00  0.00    -0.013 C 
ATOM     11  C   UNL     1      22.320  -1.661  53.145  1.00  0.00     0.016 C 
ATOM     12  C   UNL     1      21.585  -0.165  54.991  1.00  0.00     0.016 C 
ATOM     13  C   UNL     1      19.911  -1.584  53.755  1.00  0.00     0.016 C 
ENDBRANCH   5  10
ENDBRANCH   3   4
ENDBRANCH   2   3
ENDBRANCH   1   2
BRANCH   1  14
ATOM     14  C   UNL     1      20.940   6.480  48.416  1.00  0.00     0.254 C 
BRANCH  14  15
ATOM     15  N   UNL     1      21.455   7.836  48.375  1.00  0.00    -0.225 N 
ATOM     16  C   UNL     1      22.711   8.164  47.915  1.00  0.00     0.204 A 
ATOM     17  C   UNL     1      20.867   9.013  48.760  1.00  0.00     0.434 A 
ATOM     18  C   UNL     1      22.829   9.523  48.094  1.00  0.00     0.245 A 
ATOM     19  N   UNL     1      21.682  10.043  48.629  1.00  0.00    -0.074 NA
BRANCH  17  20
ATOM     20  N   UNL     1      19.528   9.145  49.264  1.00  0.00    -0.047 N 
ATOM     21  O   UNL     1      18.601   9.108  48.444  1.00  0.00    -0.390 OA
ATOM     22  O   UNL     1      19.397   9.277  50.489  1.00  0.00    -0.390 OA
ENDBRANCH  17  20
ENDBRANCH  14  15
ENDBRANCH   1  14
BRANCH   1  23
ATOM     23  O   UNL     1      22.394   4.900  49.576  1.00  0.00    -0.452 OA
BRANCH  23  24
ATOM     24  C   UNL     1      23.396   5.172  50.455  1.00  0.00     0.338 C 
ATOM     25  O   UNL     1      23.920   6.263  50.611  1.00  0.00    -0.246 OA
BRANCH  24  26
ATOM     26  C   UNL     1      23.799   3.954  51.199  1.00  0.00     0.060 A 
ATOM     27  C   UNL     1      24.082   2.745  50.559  1.00  0.00     0.018 A 
ATOM     28  C   UNL     1      23.872   4.021  52.592  1.00  0.00     0.018 A 
ATOM     29  C   UNL     1      24.459   1.621  51.307  1.00  0.00     0.027 A 
ATOM     30  C   UNL     1      24.246   2.894  53.332  1.00  0.00     0.027 A 
ATOM     31  C   UNL     1      24.554   1.677  52.703  1.00  0.00     0.038 A 
BRANCH  31  32
ATOM     32  N   UNL     1      24.913   0.582  53.505  1.00  0.00    -0.361 N 
ATOM     33  H   UNL     1      24.524   0.584  54.451  1.00  0.00     0.166 HD
BRANCH  32  34
ATOM     34  C   UNL     1      25.770  -0.456  53.235  1.00  0.00     0.099 C 
ATOM     35  C   UNL     1      27.100  -0.451  53.371  1.00  0.00     0.085 C 
ATOM     36  C   UNL     1      27.999  -1.575  53.081  1.00  0.00     0.191 C 
ATOM     37  C   UNL     1      27.931   0.668  53.832  1.00  0.00     0.191 C 
ATOM     38  O   UNL     1      27.711  -2.684  52.682  1.00  0.00    -0.289 OA
ATOM     39  C   UNL     1      29.361  -1.091  53.379  1.00  0.00     0.057 C 
ATOM     40  C   UNL     1      29.322   0.180  53.804  1.00  0.00     0.057 C 
ATOM     41  O   UNL     1      27.568   1.776  54.171  1.00  0.00    -0.289 OA
ENDBRANCH  32  34
ENDBRANCH  31  32
ENDBRANCH  24  26
ENDBRANCH  23  24
ENDBRANCH   1  23
TORSDOF 12
ENDMDL
MODEL 6
REMARK VINA RESULT:    -9.091      4.048      9.844
REMARK INTER + INTRA:         -16.761
REMARK INTER:                 -13.412
REMARK INTRA:                  -3.349
REMARK UNBOUND:                -1.292
REMARK SMILES CC(C)(C)c1ccc(OC[C@H](Cn2ccnc2[N+](=O)[O-])OC(=O)c2ccc(NC=C3C(=O)C=CC3=O)cc2)cc1
REMARK SMILES IDX 11 1 10 2 9 3 8 4 5 5 6 6 40 7 7 8 39 9 2 10 1 11 3 12 4 13
REMARK SMILES IDX 12 14 13 15 14 16 17 17 15 18 16 19 18 20 19 21 20 22 21 23
REMARK SMILES IDX 22 24 23 25 24 26 25 27 38 28 26 29 37 30 27 31 28 32 29 34
REMARK SMILES IDX 30 35 31 36 35 37 32 38 33 39 34 40 36 41
REMARK H PARENT 28 33
ROOT
ATOM      1  C   UNL     1      22.545   4.679  48.481  1.00  0.00     0.248 C 
ENDROOT
BRANCH   1   2
ATOM      2  C   UNL     1      21.986   3.295  48.109  1.00  0.00     0.278 C 
BRANCH   2   3
ATOM      3  O   UNL     1      20.761   3.011  48.782  1.00  0.00    -0.490 OA
BRANCH   3   4
ATOM      4  C   UNL     1      20.808   2.352  49.978  1.00  0.00     0.119 A 
ATOM      5  C   UNL     1      20.994   0.730  52.307  1.00  0.00    -0.042 A 
ATOM      6  C   UNL     1      20.530   2.054  52.369  1.00  0.00     0.008 A 
ATOM      7  C   UNL     1      21.367   0.242  51.042  1.00  0.00     0.008 A 
ATOM      8  C   UNL     1      20.439   2.855  51.220  1.00  0.00     0.047 A 
ATOM      9  C   UNL     1      21.276   1.041  49.898  1.00  0.00     0.047 A 
BRANCH   5  10
ATOM     10  C   UNL     1      21.106  -0.172  53.548  1.00  0.00    -0.013 C 
ATOM     11  C   UNL     1      20.958   0.586  54.888  1.00  0.00     0.016 C 
ATOM     12  C   UNL     1      19.998  -1.247  53.508  1.00  0.00     0.016 C 
ATOM     13  C   UNL     1      22.486  -0.864  53.566  1.00  0.00     0.016 C 
ENDBRANCH   5  10
ENDBRANCH   3   4
ENDBRANCH   2   3
ENDBRANCH   1   2
BRANCH   1  14
ATOM     14  C   UNL     1      22.226   5.769  47.444  1.00  0.00     0.254 C 
BRANCH  14  15
ATOM     15  N   UNL     1      20.997   6.503  47.685  1.00  0.00    -0.225 N 
ATOM     16  C   UNL     1      19.867   6.379  46.907  1.00  0.00     0.204 A 
ATOM     17  C   UNL     1      20.697   7.421  48.657  1.00  0.00     0.434 A 
ATOM     18  C   UNL     1      18.959   7.271  47.428  1.00  0.00     0.245 A 
ATOM     19  N   UNL     1      19.485   7.923  48.510  1.00  0.00    -0.074 NA
BRANCH  17  20
ATOM     20  N   UNL     1      21.579   7.824  49.718  1.00  0.00    -0.047 N 
ATOM     21  O   UNL     1      21.483   7.227  50.799  1.00  0.00    -0.390 OA
ATOM     22  O   UNL     1      22.379   8.736  49.471  1.00  0.00    -0.390 OA
ENDBRANCH  17  20
ENDBRANCH  14  15
ENDBRANCH   1  14
BRANCH   1  23
ATOM     23  O   UNL     1      23.975   4.594  48.675  1.00  0.00    -0.452 OA
BRANCH  23  24
ATOM     24  C   UNL     1      24.425   5.102  49.854  1.00  0.00     0.338 C 
ATOM     25  O   UNL     1      24.614   6.285  50.086  1.00  0.00    -0.246 OA
BRANCH  24  26
ATOM     26  C   UNL     1      24.687   4.022  50.836  1.00  0.00     0.060 A 
ATOM     27  C   UNL     1      23.920   3.860  51.992  1.00  0.00     0.018 A 
ATOM     28  C   UNL     1      25.757   3.156  50.601  1.00  0.00     0.018 A 
ATOM     29  C   UNL     1      24.208   2.823  52.891  1.00  0.00     0.027 A 
ATOM     30  C   UNL     1      26.040   2.126  51.504  1.00  0.00     0.027 A 
ATOM     31  C   UNL     1      25.266   1.935  52.661  1.00  0.00     0.038 A 
BRANCH  31  32
ATOM     32  N   UNL     1      25.609   0.887  53.530  1.00  0.00    -0.361 N 
ATOM     33  H   UNL     1      25.400   1.050  54.518  1.00  0.00     0.166 HD
BRANCH  32  34
ATOM     34  C   UNL     1      26.254  -0.295  53.262  1.00  0.00     0.099 C 
ATOM     35  C   UNL     1      27.566  -0.532  53.359  1.00  0.00     0.085 C 
ATOM     36  C   UNL     1      28.234  -1.807  53.073  1.00  0.00     0.191 C 
ATOM     37  C   UNL     1      28.602   0.425  53.767  1.00  0.00     0.191 C 
ATOM     38  O   UNL     1      27.736  -2.852  52.710  1.00  0.00    -0.289 OA
ATOM     39  C   UNL     1      29.671  -1.575  53.319  1.00  0.00     0.057 C 
ATOM     40  C   UNL     1      29.879  -0.310  53.712  1.00  0.00     0.057 C 
ATOM     41  O   UNL     1      28.458   1.588  54.088  1.00  0.00    -0.289 OA
ENDBRANCH  32  34
ENDBRANCH  31  32
ENDBRANCH  24  26
ENDBRANCH  23  24
ENDBRANCH   1  23
TORSDOF 12
ENDMDL
MODEL 7
REMARK VINA RESULT:    -9.011      5.056     10.440
REMARK INTER + INTRA:         -16.624
REMARK INTER:                 -12.972
REMARK INTRA:                  -3.652
REMARK UNBOUND:                -1.292
REMARK SMILES CC(C)(C)c1ccc(OC[C@H](Cn2ccnc2[N+](=O)[O-])OC(=O)c2ccc(NC=C3C(=O)C=CC3=O)cc2)cc1
REMARK SMILES IDX 11 1 10 2 9 3 8 4 5 5 6 6 40 7 7 8 39 9 2 10 1 11 3 12 4 13
REMARK SMILES IDX 12 14 13 15 14 16 17 17 15 18 16 19 18 20 19 21 20 22 21 23
REMARK SMILES IDX 22 24 23 25 24 26 25 27 38 28 26 29 37 30 27 31 28 32 29 34
REMARK SMILES IDX 30 35 31 36 35 37 32 38 33 39 34 40 36 41
REMARK H PARENT 28 33
ROOT
ATOM      1  C   UNL     1      21.336   6.924  48.911  1.00  0.00     0.248 C 
ENDROOT
BRANCH   1   2
ATOM      2  C   UNL     1      20.685   6.718  50.290  1.00  0.00     0.278 C 
BRANCH   2   3
ATOM      3  O   UNL     1      21.650   6.450  51.306  1.00  0.00    -0.490 OA
BRANCH   3   4
ATOM      4  C   UNL     1      21.854   5.155  51.689  1.00  0.00     0.119 A 
ATOM      5  C   UNL     1      22.002   2.396  52.366  1.00  0.00    -0.042 A 
ATOM      6  C   UNL     1      22.997   3.304  52.762  1.00  0.00     0.008 A 
ATOM      7  C   UNL     1      20.930   2.911  51.615  1.00  0.00     0.008 A 
ATOM      8  C   UNL     1      22.925   4.665  52.428  1.00  0.00     0.047 A 
ATOM      9  C   UNL     1      20.859   4.268  51.283  1.00  0.00     0.047 A 
BRANCH   5  10
ATOM     10  C   UNL     1      22.053   0.899  52.715  1.00  0.00    -0.013 C 
ATOM     11  C   UNL     1      21.123   0.497  53.884  1.00  0.00     0.016 C 
ATOM     12  C   UNL     1      21.627   0.066  51.487  1.00  0.00     0.016 C 
ATOM     13  C   UNL     1      23.491   0.507  53.122  1.00  0.00     0.016 C 
ENDBRANCH   5  10
ENDBRANCH   3   4
ENDBRANCH   2   3
ENDBRANCH   1   2
BRANCH   1  14
ATOM     14  C   UNL     1      20.490   7.785  47.956  1.00  0.00     0.254 C 
BRANCH  14  15
ATOM     15  N   UNL     1      20.732   9.213  48.041  1.00  0.00    -0.225 N 
ATOM     16  C   UNL     1      21.769   9.853  47.399  1.00  0.00     0.204 A 
ATOM     17  C   UNL     1      20.048  10.182  48.728  1.00  0.00     0.434 A 
ATOM     18  C   UNL     1      21.681  11.172  47.777  1.00  0.00     0.245 A 
ATOM     19  N   UNL     1      20.614  11.369  48.611  1.00  0.00    -0.074 NA
BRANCH  17  20
ATOM     20  N   UNL     1      18.860   9.965  49.506  1.00  0.00    -0.047 N 
ATOM     21  O   UNL     1      19.004   9.670  50.700  1.00  0.00    -0.390 OA
ATOM     22  O   UNL     1      17.774  10.096  48.926  1.00  0.00    -0.390 OA
ENDBRANCH  17  20
ENDBRANCH  14  15
ENDBRANCH   1  14
BRANCH   1  23
ATOM     23  O   UNL     1      21.609   5.643  48.300  1.00  0.00    -0.452 OA
BRANCH  23  24
ATOM     24  C   UNL     1      22.825   5.543  47.697  1.00  0.00     0.338 C 
ATOM     25  O   UNL     1      23.079   5.901  46.559  1.00  0.00    -0.246 OA
BRANCH  24  26
ATOM     26  C   UNL     1      23.819   4.912  48.599  1.00  0.00     0.060 A 
ATOM     27  C   UNL     1      24.871   5.630  49.173  1.00  0.00     0.018 A 
ATOM     28  C   UNL     1      23.706   3.545  48.859  1.00  0.00     0.018 A 
ATOM     29  C   UNL     1      25.786   4.988  50.019  1.00  0.00     0.027 A 
ATOM     30  C   UNL     1      24.625   2.911  49.702  1.00  0.00     0.027 A 
ATOM     31  C   UNL     1      25.676   3.622  50.303  1.00  0.00     0.038 A 
BRANCH  31  32
ATOM     32  N   UNL     1      26.568   2.922  51.132  1.00  0.00    -0.361 N 
ATOM     33  H   UNL     1      27.385   3.453  51.444  1.00  0.00     0.166 HD
BRANCH  32  34
ATOM     34  C   UNL     1      26.547   1.607  51.525  1.00  0.00     0.099 C 
ATOM     35  C   UNL     1      27.322   1.037  52.453  1.00  0.00     0.085 C 
ATOM     36  C   UNL     1      27.279  -0.372  52.864  1.00  0.00     0.191 C 
ATOM     37  C   UNL     1      28.368   1.694  53.247  1.00  0.00     0.191 C 
ATOM     38  O   UNL     1      26.553  -1.253  52.454  1.00  0.00    -0.289 OA
ATOM     39  C   UNL     1      28.315  -0.522  53.904  1.00  0.00     0.057 C 
ATOM     40  C   UNL     1      28.933   0.649  54.121  1.00  0.00     0.057 C 
ATOM     41  O   UNL     1      28.714   2.858  53.207  1.00  0.00    -0.289 OA
ENDBRANCH  32  34
ENDBRANCH  31  32
ENDBRANCH  24  26
ENDBRANCH  23  24
ENDBRANCH   1  23
TORSDOF 12
ENDMDL
MODEL 8
REMARK VINA RESULT:    -9.004      3.925      8.314
REMARK INTER + INTRA:         -16.612
REMARK INTER:                 -14.633
REMARK INTRA:                  -1.979
REMARK UNBOUND:                -1.292
REMARK SMILES CC(C)(C)c1ccc(OC[C@H](Cn2ccnc2[N+](=O)[O-])OC(=O)c2ccc(NC=C3C(=O)C=CC3=O)cc2)cc1
REMARK SMILES IDX 11 1 10 2 9 3 8 4 5 5 6 6 40 7 7 8 39 9 2 10 1 11 3 12 4 13
REMARK SMILES IDX 12 14 13 15 14 16 17 17 15 18 16 19 18 20 19 21 20 22 21 23
REMARK SMILES IDX 22 24 23 25 24 26 25 27 38 28 26 29 37 30 27 31 28 32 29 34
REMARK SMILES IDX 30 35 31 36 35 37 32 38 33 39 34 40 36 41
REMARK H PARENT 28 33
ROOT
ATOM      1  C   UNL     1      21.649   3.135  48.900  1.00  0.00     0.248 C 
ENDROOT
BRANCH   1   2
ATOM      2  C   UNL     1      23.039   3.598  48.433  1.00  0.00     0.278 C 
BRANCH   2   3
ATOM      3  O   UNL     1      23.704   4.386  49.419  1.00  0.00    -0.490 OA
BRANCH   3   4
ATOM      4  C   UNL     1      24.920   4.927  49.113  1.00  0.00     0.119 A 
ATOM      5  C   UNL     1      27.300   6.307  48.387  1.00  0.00    -0.042 A 
ATOM      6  C   UNL     1      27.328   4.971  48.819  1.00  0.00     0.008 A 
ATOM      7  C   UNL     1      26.042   6.934  48.333  1.00  0.00     0.008 A 
ATOM      8  C   UNL     1      26.155   4.290  49.179  1.00  0.00     0.047 A 
ATOM      9  C   UNL     1      24.873   6.254  48.691  1.00  0.00     0.047 A 
BRANCH   5  10
ATOM     10  C   UNL     1      28.568   7.080  47.988  1.00  0.00    -0.013 C 
ATOM     11  C   UNL     1      28.533   7.638  46.547  1.00  0.00     0.016 C 
ATOM     12  C   UNL     1      28.762   8.282  48.938  1.00  0.00     0.016 C 
ATOM     13  C   UNL     1      29.798   6.150  48.086  1.00  0.00     0.016 C 
ENDBRANCH   5  10
ENDBRANCH   3   4
ENDBRANCH   2   3
ENDBRANCH   1   2
BRANCH   1  14
ATOM     14  C   UNL     1      20.527   4.138  48.578  1.00  0.00     0.254 C 
BRANCH  14  15
ATOM     15  N   UNL     1      20.917   5.236  47.714  1.00  0.00    -0.225 N 
ATOM     16  C   UNL     1      21.206   6.503  48.171  1.00  0.00     0.204 A 
ATOM     17  C   UNL     1      21.072   5.274  46.353  1.00  0.00     0.434 A 
ATOM     18  C   UNL     1      21.473   7.251  47.048  1.00  0.00     0.245 A 
ATOM     19  N   UNL     1      21.378   6.483  45.920  1.00  0.00    -0.074 NA
BRANCH  17  20
ATOM     20  N   UNL     1      20.912   4.152  45.469  1.00  0.00    -0.047 N 
ATOM     21  O   UNL     1      19.758   3.830  45.156  1.00  0.00    -0.390 OA
ATOM     22  O   UNL     1      21.945   3.593  45.076  1.00  0.00    -0.390 OA
ENDBRANCH  17  20
ENDBRANCH  14  15
ENDBRANCH   1  14
BRANCH   1  23
ATOM     23  O   UNL     1      21.672   2.870  50.321  1.00  0.00    -0.452 OA
BRANCH  23  24
ATOM     24  C   UNL     1      21.366   1.591  50.670  1.00  0.00     0.338 C 
ATOM     25  O   UNL     1      20.396   0.965  50.276  1.00  0.00    -0.246 OA
BRANCH  24  26
ATOM     26  C   UNL     1      22.360   1.046  51.627  1.00  0.00     0.060 A 
ATOM     27  C   UNL     1      22.079  -0.037  52.463  1.00  0.00     0.018 A 
ATOM     28  C   UNL     1      23.612   1.660  51.705  1.00  0.00     0.018 A 
ATOM     29  C   UNL     1      23.052  -0.516  53.351  1.00  0.00     0.027 A 
ATOM     30  C   UNL     1      24.577   1.178  52.596  1.00  0.00     0.027 A 
ATOM     31  C   UNL     1      24.318   0.077  53.429  1.00  0.00     0.038 A 
BRANCH  31  32
ATOM     32  N   UNL     1      25.328  -0.349  54.306  1.00  0.00    -0.361 N 
ATOM     33  H   UNL     1      25.085  -1.145  54.902  1.00  0.00     0.166 HD
BRANCH  32  34
ATOM     34  C   UNL     1      26.569   0.189  54.538  1.00  0.00     0.099 C 
ATOM     35  C   UNL     1      27.738  -0.266  54.076  1.00  0.00     0.085 C 
ATOM     36  C   UNL     1      29.055   0.330  54.332  1.00  0.00     0.191 C 
ATOM     37  C   UNL     1      27.946  -1.444  53.225  1.00  0.00     0.191 C 
ATOM     38  O   UNL     1      29.320   1.316  54.987  1.00  0.00    -0.289 OA
ATOM     39  C   UNL     1      30.029  -0.521  53.620  1.00  0.00     0.057 C 
ATOM     40  C   UNL     1      29.400  -1.526  52.993  1.00  0.00     0.057 C 
ATOM     41  O   UNL     1      27.108  -2.208  52.792  1.00  0.00    -0.289 OA
ENDBRANCH  32  34
ENDBRANCH  31  32
ENDBRANCH  24  26
ENDBRANCH  23  24
ENDBRANCH   1  23
TORSDOF 12
ENDMDL
MODEL 9
REMARK VINA RESULT:    -8.955      3.687      7.198
REMARK INTER + INTRA:         -16.530
REMARK INTER:                 -13.521
REMARK INTRA:                  -3.008
REMARK UNBOUND:                -1.292
REMARK SMILES CC(C)(C)c1ccc(OC[C@H](Cn2ccnc2[N+](=O)[O-])OC(=O)c2ccc(NC=C3C(=O)C=CC3=O)cc2)cc1
REMARK SMILES IDX 11 1 10 2 9 3 8 4 5 5 6 6 40 7 7 8 39 9 2 10 1 11 3 12 4 13
REMARK SMILES IDX 12 14 13 15 14 16 17 17 15 18 16 19 18 20 19 21 20 22 21 23
REMARK SMILES IDX 22 24 23 25 24 26 25 27 38 28 26 29 37 30 27 31 28 32 29 34
REMARK SMILES IDX 30 35 31 36 35 37 32 38 33 39 34 40 36 41
REMARK H PARENT 28 33
ROOT
ATOM      1  C   UNL     1      24.327   6.298  49.783  1.00  0.00     0.248 C 
ENDROOT
BRANCH   1   2
ATOM      2  C   UNL     1      23.975   5.980  51.247  1.00  0.00     0.278 C 
BRANCH   2   3
ATOM      3  O   UNL     1      23.431   4.670  51.397  1.00  0.00    -0.490 OA
BRANCH   3   4
ATOM      4  C   UNL     1      24.273   3.645  51.721  1.00  0.00     0.119 A 
ATOM      5  C   UNL     1      25.949   1.561  52.691  1.00  0.00    -0.042 A 
ATOM      6  C   UNL     1      25.928   1.915  51.333  1.00  0.00     0.008 A 
ATOM      7  C   UNL     1      25.101   2.281  53.552  1.00  0.00     0.008 A 
ATOM      8  C   UNL     1      25.101   2.942  50.853  1.00  0.00     0.047 A 
ATOM      9  C   UNL     1      24.277   3.305  53.073  1.00  0.00     0.047 A 
BRANCH   5  10
ATOM     10  C   UNL     1      26.844   0.440  53.247  1.00  0.00    -0.013 C 
ATOM     11  C   UNL     1      26.934  -0.801  52.329  1.00  0.00     0.016 C 
ATOM     12  C   UNL     1      28.281   0.971  53.438  1.00  0.00     0.016 C 
ATOM     13  C   UNL     1      26.294  -0.040  54.608  1.00  0.00     0.016 C 
ENDBRANCH   5  10
ENDBRANCH   3   4
ENDBRANCH   2   3
ENDBRANCH   1   2
BRANCH   1  14
ATOM     14  C   UNL     1      25.491   7.294  49.635  1.00  0.00     0.254 C 
BRANCH  14  15
ATOM     15  N   UNL     1      26.708   6.734  49.076  1.00  0.00    -0.225 N 
ATOM     16  C   UNL     1      26.896   5.389  48.846  1.00  0.00     0.204 A 
ATOM     17  C   UNL     1      27.864   7.357  48.684  1.00  0.00     0.434 A 
ATOM     18  C   UNL     1      28.181   5.270  48.370  1.00  0.00     0.245 A 
ATOM     19  N   UNL     1      28.781   6.497  48.281  1.00  0.00    -0.074 NA
BRANCH  17  20
ATOM     20  N   UNL     1      28.091   8.776  48.708  1.00  0.00    -0.047 N 
ATOM     21  O   UNL     1      28.565   9.261  49.744  1.00  0.00    -0.390 OA
ATOM     22  O   UNL     1      27.802   9.411  47.685  1.00  0.00    -0.390 OA
ENDBRANCH  17  20
ENDBRANCH  14  15
ENDBRANCH   1  14
BRANCH   1  23
ATOM     23  O   UNL     1      23.161   6.806  49.098  1.00  0.00    -0.452 OA
BRANCH  23  24
ATOM     24  C   UNL     1      22.805   6.114  47.982  1.00  0.00     0.338 C 
ATOM     25  O   UNL     1      22.968   6.495  46.834  1.00  0.00    -0.246 OA
BRANCH  24  26
ATOM     26  C   UNL     1      22.161   4.825  48.335  1.00  0.00     0.060 A 
ATOM     27  C   UNL     1      20.950   4.759  49.027  1.00  0.00     0.018 A 
ATOM     28  C   UNL     1      22.810   3.640  47.980  1.00  0.00     0.018 A 
ATOM     29  C   UNL     1      20.381   3.516  49.339  1.00  0.00     0.027 A 
ATOM     30  C   UNL     1      22.237   2.404  48.298  1.00  0.00     0.027 A 
ATOM     31  C   UNL     1      21.010   2.319  48.974  1.00  0.00     0.038 A 
BRANCH  31  32
ATOM     32  N   UNL     1      20.496   1.046  49.270  1.00  0.00    -0.361 N 
ATOM     33  H   UNL     1      20.651   0.333  48.553  1.00  0.00     0.166 HD
BRANCH  32  34
ATOM     34  C   UNL     1      19.749   0.633  50.345  1.00  0.00     0.099 C 
ATOM     35  C   UNL     1      20.205   0.308  51.559  1.00  0.00     0.085 C 
ATOM     36  C   UNL     1      19.387  -0.127  52.698  1.00  0.00     0.191 C 
ATOM     37  C   UNL     1      21.605   0.317  52.001  1.00  0.00     0.191 C 
ATOM     38  O   UNL     1      18.183  -0.264  52.750  1.00  0.00    -0.289 OA
ATOM     39  C   UNL     1      20.333  -0.371  53.805  1.00  0.00     0.057 C 
ATOM     40  C   UNL     1      21.589  -0.120  53.409  1.00  0.00     0.057 C 
ATOM     41  O   UNL     1      22.589   0.618  51.355  1.00  0.00    -0.289 OA
ENDBRANCH  32  34
ENDBRANCH  31  32
ENDBRANCH  24  26
ENDBRANCH  23  24
ENDBRANCH   1  23
TORSDOF 12
ENDMDL
