MODEL 1
REMARK VINA RESULT:    -8.644      0.000      0.000
REMARK INTER + INTRA:         -10.512
REMARK INTER:                 -10.160
REMARK INTRA:                  -0.352
REMARK UNBOUND:                -0.352
REMARK SMILES COc1ccc(-c2cc(=O)c3c(O)cc(O)cc3o2)cc1
REMARK SMILES IDX 7 1 8 2 9 3 10 4 11 5 12 6 14 7 15 8 17 9 18 10 19 11 6 12
REMARK SMILES IDX 3 13 4 14 21 15 5 16 20 17 2 18 1 19 13 20 16 22
REMARK H PARENT 13 21 16 23
ROOT
ATOM      1  C   UNL     1      25.052   1.123  53.036  1.00  0.00     0.138 C 
ATOM      2  C   UNL     1      25.922   2.108  53.303  1.00  0.00     0.100 C 
ATOM      3  C   UNL     1      27.341   1.775  53.489  1.00  0.00     0.197 C 
ATOM      4  O   UNL     1      28.179   2.637  53.727  1.00  0.00    -0.289 OA
ATOM      5  C   UNL     1      27.716   0.361  53.374  1.00  0.00     0.107 A 
ATOM      6  C   UNL     1      29.040  -0.063  53.533  1.00  0.00     0.134 A 
ATOM      7  C   UNL     1      29.363  -1.413  53.419  1.00  0.00     0.093 A 
ATOM      8  C   UNL     1      28.352  -2.331  53.146  1.00  0.00     0.123 A 
ATOM      9  C   UNL     1      27.031  -1.920  52.986  1.00  0.00     0.094 A 
ATOM     10  C   UNL     1      26.714  -0.567  53.101  1.00  0.00     0.146 A 
ATOM     11  O   UNL     1      25.398  -0.216  52.936  1.00  0.00    -0.456 OA
ENDROOT
BRANCH   1  12
ATOM     12  C   UNL     1      23.613   1.390  52.850  1.00  0.00     0.018 A 
ATOM     13  C   UNL     1      20.864   1.943  52.504  1.00  0.00     0.118 A 
ATOM     14  C   UNL     1      21.829   2.880  52.133  1.00  0.00     0.047 A 
ATOM     15  C   UNL     1      21.272   0.730  53.055  1.00  0.00     0.047 A 
ATOM     16  C   UNL     1      23.190   2.610  52.306  1.00  0.00     0.016 A 
ATOM     17  C   UNL     1      22.636   0.458  53.229  1.00  0.00     0.016 A 
BRANCH  13  18
ATOM     18  O   UNL     1      19.572   2.333  52.280  1.00  0.00    -0.497 OA
ATOM     19  C   UNL     1      19.380   3.595  51.653  1.00  0.00     0.278 C 
ENDBRANCH  13  18
ENDBRANCH   1  12
BRANCH   6  20
ATOM     20  O   UNL     1      30.071   0.797  53.802  1.00  0.00    -0.507 OA
ATOM     21  H   UNL     1      29.788   1.397  54.529  1.00  0.00     0.293 HD
ENDBRANCH   6  20
BRANCH   8  22
ATOM     22  O   UNL     1      28.618  -3.663  53.024  1.00  0.00    -0.508 OA
ATOM     23  H   UNL     1      28.974  -3.990  53.869  1.00  0.00     0.293 HD
ENDBRANCH   8  22
TORSDOF 4
ENDMDL
MODEL 2
REMARK VINA RESULT:    -8.119      2.214      3.299
REMARK INTER + INTRA:          -9.895
REMARK INTER:                  -9.550
REMARK INTRA:                  -0.345
REMARK UNBOUND:                -0.352
REMARK SMILES COc1ccc(-c2cc(=O)c3c(O)cc(O)cc3o2)cc1
REMARK SMILES IDX 7 1 8 2 9 3 10 4 11 5 12 6 14 7 15 8 17 9 18 10 19 11 6 12
REMARK SMILES IDX 3 13 4 14 21 15 5 16 20 17 2 18 1 19 13 20 16 22
REMARK H PARENT 13 21 16 23
ROOT
ATOM      1  C   UNL     1      23.254   0.536  52.843  1.00  0.00     0.138 C 
ATOM      2  C   UNL     1      23.466   1.523  51.960  1.00  0.00     0.100 C 
ATOM      3  C   UNL     1      24.827   2.050  51.794  1.00  0.00     0.197 C 
ATOM      4  O   UNL     1      25.078   2.946  50.996  1.00  0.00    -0.289 OA
ATOM      5  C   UNL     1      25.881   1.456  52.625  1.00  0.00     0.107 A 
ATOM      6  C   UNL     1      27.210   1.885  52.545  1.00  0.00     0.134 A 
ATOM      7  C   UNL     1      28.186   1.300  53.349  1.00  0.00     0.093 A 
ATOM      8  C   UNL     1      27.819   0.287  54.230  1.00  0.00     0.123 A 
ATOM      9  C   UNL     1      26.500  -0.148  54.319  1.00  0.00     0.094 A 
ATOM     10  C   UNL     1      25.527   0.441  53.511  1.00  0.00     0.146 A 
ATOM     11  O   UNL     1      24.243  -0.023  53.638  1.00  0.00    -0.456 OA
ENDROOT
BRANCH   1  12
ATOM     12  C   UNL     1      21.909  -0.030  53.064  1.00  0.00     0.018 A 
ATOM     13  C   UNL     1      19.317  -1.074  53.480  1.00  0.00     0.118 A 
ATOM     14  C   UNL     1      19.547  -0.118  52.490  1.00  0.00     0.047 A 
ATOM     15  C   UNL     1      20.382  -1.504  54.270  1.00  0.00     0.047 A 
ATOM     16  C   UNL     1      20.830   0.402  52.284  1.00  0.00     0.016 A 
ATOM     17  C   UNL     1      21.667  -0.983  54.065  1.00  0.00     0.016 A 
BRANCH  13  18
ATOM     18  O   UNL     1      18.020  -1.499  53.574  1.00  0.00    -0.497 OA
ATOM     19  C   UNL     1      17.801  -2.903  53.562  1.00  0.00     0.278 C 
ENDBRANCH  13  18
ENDBRANCH   1  12
BRANCH   6  20
ATOM     20  O   UNL     1      27.623   2.877  51.696  1.00  0.00    -0.507 OA
ATOM     21  H   UNL     1      27.919   2.457  50.856  1.00  0.00     0.293 HD
ENDBRANCH   6  20
BRANCH   8  22
ATOM     22  O   UNL     1      28.739  -0.316  55.038  1.00  0.00    -0.508 OA
ATOM     23  H   UNL     1      29.455   0.316  55.224  1.00  0.00     0.293 HD
ENDBRANCH   8  22
TORSDOF 4
ENDMDL
MODEL 3
REMARK VINA RESULT:    -8.035      1.145      2.653
REMARK INTER + INTRA:          -9.797
REMARK INTER:                  -9.452
REMARK INTRA:                  -0.345
REMARK UNBOUND:                -0.352
REMARK SMILES COc1ccc(-c2cc(=O)c3c(O)cc(O)cc3o2)cc1
REMARK SMILES IDX 7 1 8 2 9 3 10 4 11 5 12 6 14 7 15 8 17 9 18 10 19 11 6 12
REMARK SMILES IDX 3 13 4 14 21 15 5 16 20 17 2 18 1 19 13 20 16 22
REMARK H PARENT 13 21 16 23
ROOT
ATOM      1  C   UNL     1      24.792   0.386  52.983  1.00  0.00     0.138 C 
ATOM      2  C   UNL     1      25.136  -0.865  52.645  1.00  0.00     0.100 C 
ATOM      3  C   UNL     1      26.535  -1.288  52.803  1.00  0.00     0.197 C 
ATOM      4  O   UNL     1      26.900  -2.422  52.517  1.00  0.00    -0.289 OA
ATOM      5  C   UNL     1      27.479  -0.293  53.321  1.00  0.00     0.107 A 
ATOM      6  C   UNL     1      28.833  -0.592  53.510  1.00  0.00     0.134 A 
ATOM      7  C   UNL     1      29.704   0.377  54.003  1.00  0.00     0.093 A 
ATOM      8  C   UNL     1      29.209   1.643  54.305  1.00  0.00     0.123 A 
ATOM      9  C   UNL     1      27.864   1.952  54.121  1.00  0.00     0.094 A 
ATOM     10  C   UNL     1      26.997   0.978  53.627  1.00  0.00     0.146 A 
ATOM     11  O   UNL     1      25.682   1.335  53.464  1.00  0.00    -0.456 OA
ENDROOT
BRANCH   1  12
ATOM     12  C   UNL     1      23.408   0.875  52.838  1.00  0.00     0.018 A 
ATOM     13  C   UNL     1      20.770   1.852  52.573  1.00  0.00     0.118 A 
ATOM     14  C   UNL     1      21.861   2.647  52.220  1.00  0.00     0.047 A 
ATOM     15  C   UNL     1      20.997   0.569  53.068  1.00  0.00     0.047 A 
ATOM     16  C   UNL     1      23.168   2.167  52.353  1.00  0.00     0.016 A 
ATOM     17  C   UNL     1      22.306   0.086  53.201  1.00  0.00     0.016 A 
BRANCH  13  18
ATOM     18  O   UNL     1      19.550   2.442  52.393  1.00  0.00    -0.497 OA
ATOM     19  C   UNL     1      19.520   3.635  51.621  1.00  0.00     0.278 C 
ENDBRANCH  13  18
ENDBRANCH   1  12
BRANCH   6  20
ATOM     20  O   UNL     1      29.371  -1.819  53.230  1.00  0.00    -0.507 OA
ATOM     21  H   UNL     1      30.350  -1.751  53.310  1.00  0.00     0.293 HD
ENDBRANCH   6  20
BRANCH   8  22
ATOM     22  O   UNL     1      30.023   2.624  54.790  1.00  0.00    -0.508 OA
ATOM     23  H   UNL     1      29.604   3.487  54.628  1.00  0.00     0.293 HD
ENDBRANCH   8  22
TORSDOF 4
ENDMDL
MODEL 4
REMARK VINA RESULT:    -7.964      3.119      5.989
REMARK INTER + INTRA:          -9.713
REMARK INTER:                  -9.358
REMARK INTRA:                  -0.355
REMARK UNBOUND:                -0.352
REMARK SMILES COc1ccc(-c2cc(=O)c3c(O)cc(O)cc3o2)cc1
REMARK SMILES IDX 7 1 8 2 9 3 10 4 11 5 12 6 14 7 15 8 17 9 18 10 19 11 6 12
REMARK SMILES IDX 3 13 4 14 21 15 5 16 20 17 2 18 1 19 13 20 16 22
REMARK H PARENT 13 21 16 23
ROOT
ATOM      1  C   UNL     1      24.380   1.469  52.261  1.00  0.00     0.138 C 
ATOM      2  C   UNL     1      25.194   0.847  53.126  1.00  0.00     0.100 C 
ATOM      3  C   UNL     1      24.627  -0.142  54.053  1.00  0.00     0.197 C 
ATOM      4  O   UNL     1      25.327  -0.746  54.858  1.00  0.00    -0.289 OA
ATOM      5  C   UNL     1      23.182  -0.383  53.973  1.00  0.00     0.107 A 
ATOM      6  C   UNL     1      22.542  -1.304  54.809  1.00  0.00     0.134 A 
ATOM      7  C   UNL     1      21.168  -1.508  54.707  1.00  0.00     0.093 A 
ATOM      8  C   UNL     1      20.443  -0.783  53.765  1.00  0.00     0.123 A 
ATOM      9  C   UNL     1      21.069   0.137  52.927  1.00  0.00     0.094 A 
ATOM     10  C   UNL     1      22.446   0.336  53.033  1.00  0.00     0.146 A 
ATOM     11  O   UNL     1      23.012   1.254  52.186  1.00  0.00    -0.456 OA
ENDROOT
BRANCH   1  12
ATOM     12  C   UNL     1      24.885   2.480  51.313  1.00  0.00     0.018 A 
ATOM     13  C   UNL     1      25.890   4.417  49.517  1.00  0.00     0.118 A 
ATOM     14  C   UNL     1      26.714   3.398  49.997  1.00  0.00     0.047 A 
ATOM     15  C   UNL     1      24.563   4.473  49.940  1.00  0.00     0.047 A 
ATOM     16  C   UNL     1      26.219   2.440  50.889  1.00  0.00     0.016 A 
ATOM     17  C   UNL     1      24.067   3.514  50.833  1.00  0.00     0.016 A 
BRANCH  13  18
ATOM     18  O   UNL     1      26.498   5.284  48.653  1.00  0.00    -0.497 OA
ATOM     19  C   UNL     1      27.912   5.190  48.535  1.00  0.00     0.278 C 
ENDBRANCH  13  18
ENDBRANCH   1  12
BRANCH   6  20
ATOM     20  O   UNL     1      23.207  -2.042  55.751  1.00  0.00    -0.507 OA
ATOM     21  H   UNL     1      23.315  -1.486  56.556  1.00  0.00     0.293 HD
ENDBRANCH   6  20
BRANCH   8  22
ATOM     22  O   UNL     1      19.096  -0.948  53.627  1.00  0.00    -0.508 OA
ATOM     23  H   UNL     1      18.642  -0.301  54.195  1.00  0.00     0.293 HD
ENDBRANCH   8  22
TORSDOF 4
ENDMDL
MODEL 5
REMARK VINA RESULT:    -7.903      2.393      7.685
REMARK INTER + INTRA:          -9.642
REMARK INTER:                  -9.320
REMARK INTRA:                  -0.322
REMARK UNBOUND:                -0.352
REMARK SMILES COc1ccc(-c2cc(=O)c3c(O)cc(O)cc3o2)cc1
REMARK SMILES IDX 7 1 8 2 9 3 10 4 11 5 12 6 14 7 15 8 17 9 18 10 19 11 6 12
REMARK SMILES IDX 3 13 4 14 21 15 5 16 20 17 2 18 1 19 13 20 16 22
REMARK H PARENT 13 21 16 23
ROOT
ATOM      1  C   UNL     1      22.879   0.587  52.488  1.00  0.00     0.138 C 
ATOM      2  C   UNL     1      22.678   1.046  51.244  1.00  0.00     0.100 C 
ATOM      3  C   UNL     1      21.330   0.966  50.664  1.00  0.00     0.197 C 
ATOM      4  O   UNL     1      21.090   1.379  49.535  1.00  0.00    -0.289 OA
ATOM      5  C   UNL     1      20.279   0.370  51.495  1.00  0.00     0.107 A 
ATOM      6  C   UNL     1      18.962   0.245  51.038  1.00  0.00     0.134 A 
ATOM      7  C   UNL     1      17.987  -0.326  51.853  1.00  0.00     0.093 A 
ATOM      8  C   UNL     1      18.342  -0.770  53.124  1.00  0.00     0.123 A 
ATOM      9  C   UNL     1      19.649  -0.652  53.589  1.00  0.00     0.094 A 
ATOM     10  C   UNL     1      20.620  -0.079  52.769  1.00  0.00     0.146 A 
ATOM     11  O   UNL     1      21.892   0.013  53.275  1.00  0.00    -0.456 OA
ENDROOT
BRANCH   1  12
ATOM     12  C   UNL     1      24.210   0.629  53.123  1.00  0.00     0.018 A 
ATOM     13  C   UNL     1      26.744   0.681  54.371  1.00  0.00     0.118 A 
ATOM     14  C   UNL     1      26.010  -0.503  54.304  1.00  0.00     0.047 A 
ATOM     15  C   UNL     1      26.209   1.844  53.819  1.00  0.00     0.047 A 
ATOM     16  C   UNL     1      24.753  -0.531  53.690  1.00  0.00     0.016 A 
ATOM     17  C   UNL     1      24.951   1.818  53.203  1.00  0.00     0.016 A 
BRANCH  13  18
ATOM     18  O   UNL     1      27.955   0.569  54.996  1.00  0.00    -0.497 OA
ATOM     19  C   UNL     1      28.953  -0.197  54.334  1.00  0.00     0.278 C 
ENDBRANCH  13  18
ENDBRANCH   1  12
BRANCH   6  20
ATOM     20  O   UNL     1      18.561   0.666  49.798  1.00  0.00    -0.507 OA
ATOM     21  H   UNL     1      17.584   0.787  49.817  1.00  0.00     0.293 HD
ENDBRANCH   6  20
BRANCH   8  22
ATOM     22  O   UNL     1      17.423  -1.336  53.958  1.00  0.00    -0.508 OA
ATOM     23  H   UNL     1      17.892  -1.825  54.656  1.00  0.00     0.293 HD
ENDBRANCH   8  22
TORSDOF 4
ENDMDL
MODEL 6
REMARK VINA RESULT:    -7.895      2.468      4.082
REMARK INTER + INTRA:          -9.632
REMARK INTER:                  -9.271
REMARK INTRA:                  -0.361
REMARK UNBOUND:                -0.352
REMARK SMILES COc1ccc(-c2cc(=O)c3c(O)cc(O)cc3o2)cc1
REMARK SMILES IDX 7 1 8 2 9 3 10 4 11 5 12 6 14 7 15 8 17 9 18 10 19 11 6 12
REMARK SMILES IDX 3 13 4 14 21 15 5 16 20 17 2 18 1 19 13 20 16 22
REMARK H PARENT 13 21 16 23
ROOT
ATOM      1  C   UNL     1      22.380  -0.057  53.185  1.00  0.00     0.138 C 
ATOM      2  C   UNL     1      22.845  -0.811  54.192  1.00  0.00     0.100 C 
ATOM      3  C   UNL     1      24.261  -0.702  54.569  1.00  0.00     0.197 C 
ATOM      4  O   UNL     1      24.735  -1.361  55.487  1.00  0.00    -0.289 OA
ATOM      5  C   UNL     1      25.087   0.236  53.801  1.00  0.00     0.107 A 
ATOM      6  C   UNL     1      26.447   0.416  54.079  1.00  0.00     0.134 A 
ATOM      7  C   UNL     1      27.203   1.314  53.330  1.00  0.00     0.093 A 
ATOM      8  C   UNL     1      26.589   2.026  52.303  1.00  0.00     0.123 A 
ATOM      9  C   UNL     1      25.237   1.855  52.018  1.00  0.00     0.094 A 
ATOM     10  C   UNL     1      24.484   0.955  52.771  1.00  0.00     0.146 A 
ATOM     11  O   UNL     1      23.158   0.823  52.448  1.00  0.00    -0.456 OA
ENDROOT
BRANCH   1  12
ATOM     12  C   UNL     1      20.972  -0.128  52.750  1.00  0.00     0.018 A 
ATOM     13  C   UNL     1      18.272  -0.303  51.935  1.00  0.00     0.118 A 
ATOM     14  C   UNL     1      18.682  -0.842  53.155  1.00  0.00     0.047 A 
ATOM     15  C   UNL     1      19.214   0.318  51.117  1.00  0.00     0.047 A 
ATOM     16  C   UNL     1      20.019  -0.759  53.560  1.00  0.00     0.016 A 
ATOM     17  C   UNL     1      20.553   0.402  51.521  1.00  0.00     0.016 A 
BRANCH  13  18
ATOM     18  O   UNL     1      16.940  -0.452  51.664  1.00  0.00    -0.497 OA
ATOM     19  C   UNL     1      16.204  -1.323  52.512  1.00  0.00     0.278 C 
ENDBRANCH  13  18
ENDBRANCH   1  12
BRANCH   6  20
ATOM     20  O   UNL     1      27.099  -0.259  55.076  1.00  0.00    -0.507 OA
ATOM     21  H   UNL     1      27.579  -1.017  54.670  1.00  0.00     0.293 HD
ENDBRANCH   6  20
BRANCH   8  22
ATOM     22  O   UNL     1      27.288   2.917  51.542  1.00  0.00    -0.508 OA
ATOM     23  H   UNL     1      27.887   3.421  52.121  1.00  0.00     0.293 HD
ENDBRANCH   8  22
TORSDOF 4
ENDMDL
MODEL 7
REMARK VINA RESULT:    -7.681      2.120      7.640
REMARK INTER + INTRA:          -9.380
REMARK INTER:                  -9.029
REMARK INTRA:                  -0.351
REMARK UNBOUND:                -0.352
REMARK SMILES COc1ccc(-c2cc(=O)c3c(O)cc(O)cc3o2)cc1
REMARK SMILES IDX 7 1 8 2 9 3 10 4 11 5 12 6 14 7 15 8 17 9 18 10 19 11 6 12
REMARK SMILES IDX 3 13 4 14 21 15 5 16 20 17 2 18 1 19 13 20 16 22
REMARK H PARENT 13 21 16 23
ROOT
ATOM      1  C   UNL     1      23.551   0.055  53.029  1.00  0.00     0.138 C 
ATOM      2  C   UNL     1      22.868  -0.593  53.984  1.00  0.00     0.100 C 
ATOM      3  C   UNL     1      21.414  -0.750  53.838  1.00  0.00     0.197 C 
ATOM      4  O   UNL     1      20.743  -1.341  54.677  1.00  0.00    -0.289 OA
ATOM      5  C   UNL     1      20.795  -0.171  52.641  1.00  0.00     0.107 A 
ATOM      6  C   UNL     1      19.419  -0.264  52.405  1.00  0.00     0.134 A 
ATOM      7  C   UNL     1      18.864   0.298  51.258  1.00  0.00     0.093 A 
ATOM      8  C   UNL     1      19.696   0.952  50.353  1.00  0.00     0.123 A 
ATOM      9  C   UNL     1      21.066   1.051  50.577  1.00  0.00     0.094 A 
ATOM     10  C   UNL     1      21.617   0.486  51.727  1.00  0.00     0.146 A 
ATOM     11  O   UNL     1      22.972   0.613  51.900  1.00  0.00    -0.456 OA
ENDROOT
BRANCH   1  12
ATOM     12  C   UNL     1      25.010   0.255  53.122  1.00  0.00     0.018 A 
ATOM     13  C   UNL     1      27.799   0.647  53.341  1.00  0.00     0.118 A 
ATOM     14  C   UNL     1      27.089   0.014  54.361  1.00  0.00     0.047 A 
ATOM     15  C   UNL     1      27.114   1.093  52.212  1.00  0.00     0.047 A 
ATOM     16  C   UNL     1      25.707  -0.179  54.256  1.00  0.00     0.016 A 
ATOM     17  C   UNL     1      25.730   0.900  52.105  1.00  0.00     0.016 A 
BRANCH  13  18
ATOM     18  O   UNL     1      29.142   0.770  53.570  1.00  0.00    -0.497 OA
ATOM     19  C   UNL     1      29.902  -0.432  53.600  1.00  0.00     0.278 C 
ENDBRANCH  13  18
ENDBRANCH   1  12
BRANCH   6  20
ATOM     20  O   UNL     1      18.558  -0.896  53.261  1.00  0.00    -0.507 OA
ATOM     21  H   UNL     1      17.848  -0.260  53.506  1.00  0.00     0.293 HD
ENDBRANCH   6  20
BRANCH   8  22
ATOM     22  O   UNL     1      19.198   1.518  49.216  1.00  0.00    -0.508 OA
ATOM     23  H   UNL     1      18.228   1.556  49.283  1.00  0.00     0.293 HD
ENDBRANCH   8  22
TORSDOF 4
ENDMDL
MODEL 8
REMARK VINA RESULT:    -7.516      3.964      5.922
REMARK INTER + INTRA:          -9.186
REMARK INTER:                  -8.857
REMARK INTRA:                  -0.329
REMARK UNBOUND:                -0.352
REMARK SMILES COc1ccc(-c2cc(=O)c3c(O)cc(O)cc3o2)cc1
REMARK SMILES IDX 7 1 8 2 9 3 10 4 11 5 12 6 14 7 15 8 17 9 18 10 19 11 6 12
REMARK SMILES IDX 3 13 4 14 21 15 5 16 20 17 2 18 1 19 13 20 16 22
REMARK H PARENT 13 21 16 23
ROOT
ATOM      1  C   UNL     1      25.143   3.004  50.901  1.00  0.00     0.138 C 
ATOM      2  C   UNL     1      23.920   2.501  50.680  1.00  0.00     0.100 C 
ATOM      3  C   UNL     1      23.446   1.387  51.512  1.00  0.00     0.197 C 
ATOM      4  O   UNL     1      22.333   0.895  51.358  1.00  0.00    -0.289 OA
ATOM      5  C   UNL     1      24.361   0.886  52.543  1.00  0.00     0.107 A 
ATOM      6  C   UNL     1      24.008  -0.171  53.390  1.00  0.00     0.134 A 
ATOM      7  C   UNL     1      24.902  -0.623  54.358  1.00  0.00     0.093 A 
ATOM      8  C   UNL     1      26.147  -0.010  54.470  1.00  0.00     0.123 A 
ATOM      9  C   UNL     1      26.510   1.042  53.633  1.00  0.00     0.094 A 
ATOM     10  C   UNL     1      25.611   1.490  52.666  1.00  0.00     0.146 A 
ATOM     11  O   UNL     1      26.017   2.529  51.867  1.00  0.00    -0.456 OA
ENDROOT
BRANCH   1  12
ATOM     12  C   UNL     1      25.681   4.114  50.093  1.00  0.00     0.018 A 
ATOM     13  C   UNL     1      26.753   6.230  48.557  1.00  0.00     0.118 A 
ATOM     14  C   UNL     1      27.408   5.000  48.627  1.00  0.00     0.047 A 
ATOM     15  C   UNL     1      25.564   6.406  49.261  1.00  0.00     0.047 A 
ATOM     16  C   UNL     1      26.881   3.952  49.389  1.00  0.00     0.016 A 
ATOM     17  C   UNL     1      25.035   5.357  50.025  1.00  0.00     0.016 A 
BRANCH  13  18
ATOM     18  O   UNL     1      27.375   7.165  47.777  1.00  0.00    -0.497 OA
ATOM     19  C   UNL     1      28.760   6.972  47.520  1.00  0.00     0.278 C 
ENDBRANCH  13  18
ENDBRANCH   1  12
BRANCH   6  20
ATOM     20  O   UNL     1      22.798  -0.808  53.322  1.00  0.00    -0.507 OA
ATOM     21  H   UNL     1      22.100  -0.126  53.190  1.00  0.00     0.293 HD
ENDBRANCH   6  20
BRANCH   8  22
ATOM     22  O   UNL     1      27.056  -0.418  55.402  1.00  0.00    -0.508 OA
ATOM     23  H   UNL     1      26.624  -0.434  56.274  1.00  0.00     0.293 HD
ENDBRANCH   8  22
TORSDOF 4
ENDMDL
MODEL 9
REMARK VINA RESULT:    -7.048      3.004      4.576
REMARK INTER + INTRA:          -8.636
REMARK INTER:                  -8.286
REMARK INTRA:                  -0.350
REMARK UNBOUND:                -0.352
REMARK SMILES COc1ccc(-c2cc(=O)c3c(O)cc(O)cc3o2)cc1
REMARK SMILES IDX 7 1 8 2 9 3 10 4 11 5 12 6 14 7 15 8 17 9 18 10 19 11 6 12
REMARK SMILES IDX 3 13 4 14 21 15 5 16 20 17 2 18 1 19 13 20 16 22
REMARK H PARENT 13 21 16 23
ROOT
ATOM      1  C   UNL     1      21.077   0.539  52.583  1.00  0.00     0.138 C 
ATOM      2  C   UNL     1      21.271   1.776  52.103  1.00  0.00     0.100 C 
ATOM      3  C   UNL     1      22.617   2.363  52.166  1.00  0.00     0.197 C 
ATOM      4  O   UNL     1      22.851   3.486  51.734  1.00  0.00    -0.289 OA
ATOM      5  C   UNL     1      23.675   1.545  52.767  1.00  0.00     0.107 A 
ATOM      6  C   UNL     1      24.991   2.008  52.876  1.00  0.00     0.134 A 
ATOM      7  C   UNL     1      25.972   1.205  53.453  1.00  0.00     0.093 A 
ATOM      8  C   UNL     1      25.625  -0.060  53.920  1.00  0.00     0.123 A 
ATOM      9  C   UNL     1      24.319  -0.532  53.817  1.00  0.00     0.094 A 
ATOM     10  C   UNL     1      23.341   0.276  53.237  1.00  0.00     0.146 A 
ATOM     11  O   UNL     1      22.071  -0.236  53.161  1.00  0.00    -0.456 OA
ENDROOT
BRANCH   1  12
ATOM     12  C   UNL     1      19.749  -0.101  52.559  1.00  0.00     0.018 A 
ATOM     13  C   UNL     1      17.186  -1.291  52.500  1.00  0.00     0.118 A 
ATOM     14  C   UNL     1      17.555  -0.351  51.537  1.00  0.00     0.047 A 
ATOM     15  C   UNL     1      18.096  -1.633  53.498  1.00  0.00     0.047 A 
ATOM     16  C   UNL     1      18.822   0.243  51.566  1.00  0.00     0.016 A 
ATOM     17  C   UNL     1      19.366  -1.041  53.528  1.00  0.00     0.016 A 
BRANCH  13  18
ATOM     18  O   UNL     1      15.922  -1.792  52.355  1.00  0.00    -0.497 OA
ATOM     19  C   UNL     1      14.921  -0.891  51.901  1.00  0.00     0.278 C 
ENDBRANCH  13  18
ENDBRANCH   1  12
BRANCH   6  20
ATOM     20  O   UNL     1      25.385   3.243  52.435  1.00  0.00    -0.507 OA
ATOM     21  H   UNL     1      26.259   3.449  52.839  1.00  0.00     0.293 HD
ENDBRANCH   6  20
BRANCH   8  22
ATOM     22  O   UNL     1      26.551  -0.882  54.492  1.00  0.00    -0.508 OA
ATOM     23  H   UNL     1      26.686  -1.653  53.914  1.00  0.00     0.293 HD
ENDBRANCH   8  22
TORSDOF 4
ENDMDL
